VARIABLES  = "X","Y","Z", "PRESSURE1", "TEMPERATURE1", "CONCENTRATION1", "VELOCITY_X1", "VELOCITY_Y1", "VELOCITY_Z1"
ZONE T="0.000000000000e+000s", N=121, E=200, F=FEPOINT, ET=QUADRILATERAL
STRANDID=1, SOLUTIONTIME=0.000000000000e+000
0.000000000000e+000 0.000000000000e+000 0.000000000000e+000 0.000000000000e+000 0.000000000000e+000 0.000000000000e+000 0.000000000000e+000 0.000000000000e+000 0.000000000000e+000 
1.000000000000e+001 0.000000000000e+000 0.000000000000e+000 0.000000000000e+000 0.000000000000e+000 0.000000000000e+000 0.000000000000e+000 0.000000000000e+000 0.000000000000e+000 
2.000000000000e+001 0.000000000000e+000 0.000000000000e+000 0.000000000000e+000 0.000000000000e+000 0.000000000000e+000 0.000000000000e+000 0.000000000000e+000 0.000000000000e+000 
3.000000000000e+001 0.000000000000e+000 0.000000000000e+000 0.000000000000e+000 0.000000000000e+000 0.000000000000e+000 0.000000000000e+000 0.000000000000e+000 0.000000000000e+000 
4.000000000000e+001 0.000000000000e+000 0.000000000000e+000 0.000000000000e+000 0.000000000000e+000 0.000000000000e+000 0.000000000000e+000 0.000000000000e+000 0.000000000000e+000 
5.000000000000e+001 0.000000000000e+000 0.000000000000e+000 0.000000000000e+000 0.000000000000e+000 0.000000000000e+000 0.000000000000e+000 0.000000000000e+000 0.000000000000e+000 
6.000000000000e+001 0.000000000000e+000 0.000000000000e+000 0.000000000000e+000 0.000000000000e+000 0.000000000000e+000 0.000000000000e+000 0.000000000000e+000 0.000000000000e+000 
7.000000000000e+001 0.000000000000e+000 0.000000000000e+000 0.000000000000e+000 0.000000000000e+000 0.000000000000e+000 0.000000000000e+000 0.000000000000e+000 0.000000000000e+000 
8.000000000000e+001 0.000000000000e+000 0.000000000000e+000 0.000000000000e+000 0.000000000000e+000 0.000000000000e+000 0.000000000000e+000 0.000000000000e+000 0.000000000000e+000 
9.000000000000e+001 0.000000000000e+000 0.000000000000e+000 0.000000000000e+000 0.000000000000e+000 0.000000000000e+000 0.000000000000e+000 0.000000000000e+000 0.000000000000e+000 
1.000000000000e+002 0.000000000000e+000 0.000000000000e+000 0.000000000000e+000 0.000000000000e+000 0.000000000000e+000 0.000000000000e+000 0.000000000000e+000 0.000000000000e+000 
0.000000000000e+000 0.000000000000e+000 1.000000000000e+001 -9.810000000000e+004 0.000000000000e+000 0.000000000000e+000 0.000000000000e+000 0.000000000000e+000 0.000000000000e+000 
1.000000000000e+001 0.000000000000e+000 1.000000000000e+001 -9.810000000000e+004 0.000000000000e+000 0.000000000000e+000 0.000000000000e+000 0.000000000000e+000 0.000000000000e+000 
2.000000000000e+001 0.000000000000e+000 1.000000000000e+001 -9.810000000000e+004 0.000000000000e+000 0.000000000000e+000 0.000000000000e+000 0.000000000000e+000 0.000000000000e+000 
3.000000000000e+001 0.000000000000e+000 1.000000000000e+001 -9.810000000000e+004 0.000000000000e+000 0.000000000000e+000 0.000000000000e+000 0.000000000000e+000 0.000000000000e+000 
4.000000000000e+001 0.000000000000e+000 1.000000000000e+001 -9.810000000000e+004 0.000000000000e+000 0.000000000000e+000 0.000000000000e+000 0.000000000000e+000 0.000000000000e+000 
5.000000000000e+001 0.000000000000e+000 1.000000000000e+001 -9.810000000000e+004 0.000000000000e+000 0.000000000000e+000 0.000000000000e+000 0.000000000000e+000 0.000000000000e+000 
6.000000000000e+001 0.000000000000e+000 1.000000000000e+001 -9.810000000000e+004 0.000000000000e+000 0.000000000000e+000 0.000000000000e+000 0.000000000000e+000 0.000000000000e+000 
7.000000000000e+001 0.000000000000e+000 1.000000000000e+001 -9.810000000000e+004 0.000000000000e+000 0.000000000000e+000 0.000000000000e+000 0.000000000000e+000 0.000000000000e+000 
8.000000000000e+001 0.000000000000e+000 1.000000000000e+001 -9.810000000000e+004 0.000000000000e+000 0.000000000000e+000 0.000000000000e+000 0.000000000000e+000 0.000000000000e+000 
9.000000000000e+001 0.000000000000e+000 1.000000000000e+001 -9.810000000000e+004 0.000000000000e+000 0.000000000000e+000 0.000000000000e+000 0.000000000000e+000 0.000000000000e+000 
1.000000000000e+002 0.000000000000e+000 1.000000000000e+001 -9.810000000000e+004 0.000000000000e+000 0.000000000000e+000 0.000000000000e+000 0.000000000000e+000 0.000000000000e+000 
0.000000000000e+000 0.000000000000e+000 2.000000000000e+001 -1.962000000000e+005 0.000000000000e+000 0.000000000000e+000 0.000000000000e+000 0.000000000000e+000 0.000000000000e+000 
1.000000000000e+001 0.000000000000e+000 2.000000000000e+001 -1.962000000000e+005 0.000000000000e+000 0.000000000000e+000 0.000000000000e+000 0.000000000000e+000 0.000000000000e+000 
2.000000000000e+001 0.000000000000e+000 2.000000000000e+001 -1.962000000000e+005 0.000000000000e+000 0.000000000000e+000 0.000000000000e+000 0.000000000000e+000 0.000000000000e+000 
3.000000000000e+001 0.000000000000e+000 2.000000000000e+001 -1.962000000000e+005 0.000000000000e+000 0.000000000000e+000 0.000000000000e+000 0.000000000000e+000 0.000000000000e+000 
4.000000000000e+001 0.000000000000e+000 2.000000000000e+001 -1.962000000000e+005 0.000000000000e+000 0.000000000000e+000 0.000000000000e+000 0.000000000000e+000 0.000000000000e+000 
5.000000000000e+001 0.000000000000e+000 2.000000000000e+001 -1.962000000000e+005 0.000000000000e+000 0.000000000000e+000 0.000000000000e+000 0.000000000000e+000 0.000000000000e+000 
6.000000000000e+001 0.000000000000e+000 2.000000000000e+001 -1.962000000000e+005 0.000000000000e+000 0.000000000000e+000 0.000000000000e+000 0.000000000000e+000 0.000000000000e+000 
7.000000000000e+001 0.000000000000e+000 2.000000000000e+001 -1.962000000000e+005 0.000000000000e+000 0.000000000000e+000 0.000000000000e+000 0.000000000000e+000 0.000000000000e+000 
8.000000000000e+001 0.000000000000e+000 2.000000000000e+001 -1.962000000000e+005 0.000000000000e+000 0.000000000000e+000 0.000000000000e+000 0.000000000000e+000 0.000000000000e+000 
9.000000000000e+001 0.000000000000e+000 2.000000000000e+001 -1.962000000000e+005 0.000000000000e+000 0.000000000000e+000 0.000000000000e+000 0.000000000000e+000 0.000000000000e+000 
1.000000000000e+002 0.000000000000e+000 2.000000000000e+001 -1.962000000000e+005 0.000000000000e+000 0.000000000000e+000 0.000000000000e+000 0.000000000000e+000 0.000000000000e+000 
0.000000000000e+000 0.000000000000e+000 3.000000000000e+001 -2.943000000000e+005 0.000000000000e+000 0.000000000000e+000 0.000000000000e+000 0.000000000000e+000 0.000000000000e+000 
1.000000000000e+001 0.000000000000e+000 3.000000000000e+001 -2.943000000000e+005 0.000000000000e+000 0.000000000000e+000 0.000000000000e+000 0.000000000000e+000 0.000000000000e+000 
2.000000000000e+001 0.000000000000e+000 3.000000000000e+001 -2.943000000000e+005 0.000000000000e+000 0.000000000000e+000 0.000000000000e+000 0.000000000000e+000 0.000000000000e+000 
3.000000000000e+001 0.000000000000e+000 3.000000000000e+001 -2.943000000000e+005 0.000000000000e+000 0.000000000000e+000 0.000000000000e+000 0.000000000000e+000 0.000000000000e+000 
4.000000000000e+001 0.000000000000e+000 3.000000000000e+001 -2.943000000000e+005 0.000000000000e+000 0.000000000000e+000 0.000000000000e+000 0.000000000000e+000 0.000000000000e+000 
5.000000000000e+001 0.000000000000e+000 3.000000000000e+001 -2.943000000000e+005 0.000000000000e+000 0.000000000000e+000 0.000000000000e+000 0.000000000000e+000 0.000000000000e+000 
6.000000000000e+001 0.000000000000e+000 3.000000000000e+001 -2.943000000000e+005 0.000000000000e+000 0.000000000000e+000 0.000000000000e+000 0.000000000000e+000 0.000000000000e+000 
7.000000000000e+001 0.000000000000e+000 3.000000000000e+001 -2.943000000000e+005 0.000000000000e+000 0.000000000000e+000 0.000000000000e+000 0.000000000000e+000 0.000000000000e+000 
8.000000000000e+001 0.000000000000e+000 3.000000000000e+001 -2.943000000000e+005 0.000000000000e+000 0.000000000000e+000 0.000000000000e+000 0.000000000000e+000 0.000000000000e+000 
9.000000000000e+001 0.000000000000e+000 3.000000000000e+001 -2.943000000000e+005 0.000000000000e+000 0.000000000000e+000 0.000000000000e+000 0.000000000000e+000 0.000000000000e+000 
1.000000000000e+002 0.000000000000e+000 3.000000000000e+001 -2.943000000000e+005 0.000000000000e+000 0.000000000000e+000 0.000000000000e+000 0.000000000000e+000 0.000000000000e+000 
0.000000000000e+000 0.000000000000e+000 4.000000000000e+001 -3.924000000000e+005 0.000000000000e+000 0.000000000000e+000 0.000000000000e+000 0.000000000000e+000 0.000000000000e+000 
1.000000000000e+001 0.000000000000e+000 4.000000000000e+001 -3.924000000000e+005 0.000000000000e+000 0.000000000000e+000 0.000000000000e+000 0.000000000000e+000 0.000000000000e+000 
2.000000000000e+001 0.000000000000e+000 4.000000000000e+001 -3.924000000000e+005 0.000000000000e+000 0.000000000000e+000 0.000000000000e+000 0.000000000000e+000 0.000000000000e+000 
3.000000000000e+001 0.000000000000e+000 4.000000000000e+001 -3.924000000000e+005 0.000000000000e+000 0.000000000000e+000 0.000000000000e+000 0.000000000000e+000 0.000000000000e+000 
4.000000000000e+001 0.000000000000e+000 4.000000000000e+001 -3.924000000000e+005 0.000000000000e+000 0.000000000000e+000 0.000000000000e+000 0.000000000000e+000 0.000000000000e+000 
5.000000000000e+001 0.000000000000e+000 4.000000000000e+001 -3.924000000000e+005 0.000000000000e+000 0.000000000000e+000 0.000000000000e+000 0.000000000000e+000 0.000000000000e+000 
6.000000000000e+001 0.000000000000e+000 4.000000000000e+001 -3.924000000000e+005 0.000000000000e+000 0.000000000000e+000 0.000000000000e+000 0.000000000000e+000 0.000000000000e+000 
7.000000000000e+001 0.000000000000e+000 4.000000000000e+001 -3.924000000000e+005 0.000000000000e+000 0.000000000000e+000 0.000000000000e+000 0.000000000000e+000 0.000000000000e+000 
8.000000000000e+001 0.000000000000e+000 4.000000000000e+001 -3.924000000000e+005 0.000000000000e+000 0.000000000000e+000 0.000000000000e+000 0.000000000000e+000 0.000000000000e+000 
9.000000000000e+001 0.000000000000e+000 4.000000000000e+001 -3.924000000000e+005 0.000000000000e+000 0.000000000000e+000 0.000000000000e+000 0.000000000000e+000 0.000000000000e+000 
1.000000000000e+002 0.000000000000e+000 4.000000000000e+001 -3.924000000000e+005 0.000000000000e+000 0.000000000000e+000 0.000000000000e+000 0.000000000000e+000 0.000000000000e+000 
0.000000000000e+000 0.000000000000e+000 5.000000000000e+001 -4.905000000000e+005 0.000000000000e+000 0.000000000000e+000 0.000000000000e+000 0.000000000000e+000 0.000000000000e+000 
1.000000000000e+001 0.000000000000e+000 5.000000000000e+001 -4.905000000000e+005 0.000000000000e+000 0.000000000000e+000 0.000000000000e+000 0.000000000000e+000 0.000000000000e+000 
2.000000000000e+001 0.000000000000e+000 5.000000000000e+001 -4.905000000000e+005 0.000000000000e+000 0.000000000000e+000 0.000000000000e+000 0.000000000000e+000 0.000000000000e+000 
3.000000000000e+001 0.000000000000e+000 5.000000000000e+001 -4.905000000000e+005 0.000000000000e+000 0.000000000000e+000 0.000000000000e+000 0.000000000000e+000 0.000000000000e+000 
4.000000000000e+001 0.000000000000e+000 5.000000000000e+001 -4.905000000000e+005 0.000000000000e+000 0.000000000000e+000 0.000000000000e+000 0.000000000000e+000 0.000000000000e+000 
5.000000000000e+001 0.000000000000e+000 5.000000000000e+001 -4.905000000000e+005 0.000000000000e+000 0.000000000000e+000 0.000000000000e+000 0.000000000000e+000 0.000000000000e+000 
6.000000000000e+001 0.000000000000e+000 5.000000000000e+001 -4.905000000000e+005 0.000000000000e+000 0.000000000000e+000 0.000000000000e+000 0.000000000000e+000 0.000000000000e+000 
7.000000000000e+001 0.000000000000e+000 5.000000000000e+001 -4.905000000000e+005 0.000000000000e+000 0.000000000000e+000 0.000000000000e+000 0.000000000000e+000 0.000000000000e+000 
8.000000000000e+001 0.000000000000e+000 5.000000000000e+001 -4.905000000000e+005 0.000000000000e+000 0.000000000000e+000 0.000000000000e+000 0.000000000000e+000 0.000000000000e+000 
9.000000000000e+001 0.000000000000e+000 5.000000000000e+001 -4.905000000000e+005 0.000000000000e+000 0.000000000000e+000 0.000000000000e+000 0.000000000000e+000 0.000000000000e+000 
1.000000000000e+002 0.000000000000e+000 5.000000000000e+001 -4.905000000000e+005 0.000000000000e+000 0.000000000000e+000 0.000000000000e+000 0.000000000000e+000 0.000000000000e+000 
0.000000000000e+000 0.000000000000e+000 6.000000000000e+001 -5.886000000000e+005 0.000000000000e+000 0.000000000000e+000 0.000000000000e+000 0.000000000000e+000 0.000000000000e+000 
1.000000000000e+001 0.000000000000e+000 6.000000000000e+001 -5.886000000000e+005 0.000000000000e+000 0.000000000000e+000 0.000000000000e+000 0.000000000000e+000 0.000000000000e+000 
2.000000000000e+001 0.000000000000e+000 6.000000000000e+001 -5.886000000000e+005 0.000000000000e+000 0.000000000000e+000 0.000000000000e+000 0.000000000000e+000 0.000000000000e+000 
3.000000000000e+001 0.000000000000e+000 6.000000000000e+001 -5.886000000000e+005 0.000000000000e+000 0.000000000000e+000 0.000000000000e+000 0.000000000000e+000 0.000000000000e+000 
4.000000000000e+001 0.000000000000e+000 6.000000000000e+001 -5.886000000000e+005 0.000000000000e+000 0.000000000000e+000 0.000000000000e+000 0.000000000000e+000 0.000000000000e+000 
5.000000000000e+001 0.000000000000e+000 6.000000000000e+001 -5.886000000000e+005 0.000000000000e+000 0.000000000000e+000 0.000000000000e+000 0.000000000000e+000 0.000000000000e+000 
6.000000000000e+001 0.000000000000e+000 6.000000000000e+001 -5.886000000000e+005 0.000000000000e+000 0.000000000000e+000 0.000000000000e+000 0.000000000000e+000 0.000000000000e+000 
7.000000000000e+001 0.000000000000e+000 6.000000000000e+001 -5.886000000000e+005 0.000000000000e+000 0.000000000000e+000 0.000000000000e+000 0.000000000000e+000 0.000000000000e+000 
8.000000000000e+001 0.000000000000e+000 6.000000000000e+001 -5.886000000000e+005 0.000000000000e+000 0.000000000000e+000 0.000000000000e+000 0.000000000000e+000 0.000000000000e+000 
9.000000000000e+001 0.000000000000e+000 6.000000000000e+001 -5.886000000000e+005 0.000000000000e+000 0.000000000000e+000 0.000000000000e+000 0.000000000000e+000 0.000000000000e+000 
1.000000000000e+002 0.000000000000e+000 6.000000000000e+001 -5.886000000000e+005 0.000000000000e+000 0.000000000000e+000 0.000000000000e+000 0.000000000000e+000 0.000000000000e+000 
0.000000000000e+000 0.000000000000e+000 7.000000000000e+001 -6.867000000000e+005 0.000000000000e+000 0.000000000000e+000 0.000000000000e+000 0.000000000000e+000 0.000000000000e+000 
1.000000000000e+001 0.000000000000e+000 7.000000000000e+001 -6.867000000000e+005 0.000000000000e+000 0.000000000000e+000 0.000000000000e+000 0.000000000000e+000 0.000000000000e+000 
2.000000000000e+001 0.000000000000e+000 7.000000000000e+001 -6.867000000000e+005 0.000000000000e+000 0.000000000000e+000 0.000000000000e+000 0.000000000000e+000 0.000000000000e+000 
3.000000000000e+001 0.000000000000e+000 7.000000000000e+001 -6.867000000000e+005 0.000000000000e+000 0.000000000000e+000 0.000000000000e+000 0.000000000000e+000 0.000000000000e+000 
4.000000000000e+001 0.000000000000e+000 7.000000000000e+001 -6.867000000000e+005 0.000000000000e+000 0.000000000000e+000 0.000000000000e+000 0.000000000000e+000 0.000000000000e+000 
5.000000000000e+001 0.000000000000e+000 7.000000000000e+001 -6.867000000000e+005 0.000000000000e+000 0.000000000000e+000 0.000000000000e+000 0.000000000000e+000 0.000000000000e+000 
6.000000000000e+001 0.000000000000e+000 7.000000000000e+001 -6.867000000000e+005 0.000000000000e+000 0.000000000000e+000 0.000000000000e+000 0.000000000000e+000 0.000000000000e+000 
7.000000000000e+001 0.000000000000e+000 7.000000000000e+001 -6.867000000000e+005 0.000000000000e+000 0.000000000000e+000 0.000000000000e+000 0.000000000000e+000 0.000000000000e+000 
8.000000000000e+001 0.000000000000e+000 7.000000000000e+001 -6.867000000000e+005 0.000000000000e+000 0.000000000000e+000 0.000000000000e+000 0.000000000000e+000 0.000000000000e+000 
9.000000000000e+001 0.000000000000e+000 7.000000000000e+001 -6.867000000000e+005 0.000000000000e+000 0.000000000000e+000 0.000000000000e+000 0.000000000000e+000 0.000000000000e+000 
1.000000000000e+002 0.000000000000e+000 7.000000000000e+001 -6.867000000000e+005 0.000000000000e+000 0.000000000000e+000 0.000000000000e+000 0.000000000000e+000 0.000000000000e+000 
0.000000000000e+000 0.000000000000e+000 8.000000000000e+001 -7.848000000000e+005 0.000000000000e+000 0.000000000000e+000 0.000000000000e+000 0.000000000000e+000 0.000000000000e+000 
1.000000000000e+001 0.000000000000e+000 8.000000000000e+001 -7.848000000000e+005 0.000000000000e+000 0.000000000000e+000 0.000000000000e+000 0.000000000000e+000 0.000000000000e+000 
2.000000000000e+001 0.000000000000e+000 8.000000000000e+001 -7.848000000000e+005 0.000000000000e+000 0.000000000000e+000 0.000000000000e+000 0.000000000000e+000 0.000000000000e+000 
3.000000000000e+001 0.000000000000e+000 8.000000000000e+001 -7.848000000000e+005 0.000000000000e+000 0.000000000000e+000 0.000000000000e+000 0.000000000000e+000 0.000000000000e+000 
4.000000000000e+001 0.000000000000e+000 8.000000000000e+001 -7.848000000000e+005 0.000000000000e+000 0.000000000000e+000 0.000000000000e+000 0.000000000000e+000 0.000000000000e+000 
5.000000000000e+001 0.000000000000e+000 8.000000000000e+001 -7.848000000000e+005 0.000000000000e+000 0.000000000000e+000 0.000000000000e+000 0.000000000000e+000 0.000000000000e+000 
6.000000000000e+001 0.000000000000e+000 8.000000000000e+001 -7.848000000000e+005 0.000000000000e+000 0.000000000000e+000 0.000000000000e+000 0.000000000000e+000 0.000000000000e+000 
7.000000000000e+001 0.000000000000e+000 8.000000000000e+001 -7.848000000000e+005 0.000000000000e+000 0.000000000000e+000 0.000000000000e+000 0.000000000000e+000 0.000000000000e+000 
8.000000000000e+001 0.000000000000e+000 8.000000000000e+001 -7.848000000000e+005 0.000000000000e+000 0.000000000000e+000 0.000000000000e+000 0.000000000000e+000 0.000000000000e+000 
9.000000000000e+001 0.000000000000e+000 8.000000000000e+001 -7.848000000000e+005 0.000000000000e+000 0.000000000000e+000 0.000000000000e+000 0.000000000000e+000 0.000000000000e+000 
1.000000000000e+002 0.000000000000e+000 8.000000000000e+001 -7.848000000000e+005 0.000000000000e+000 0.000000000000e+000 0.000000000000e+000 0.000000000000e+000 0.000000000000e+000 
0.000000000000e+000 0.000000000000e+000 9.000000000000e+001 -8.829000000000e+005 0.000000000000e+000 0.000000000000e+000 0.000000000000e+000 0.000000000000e+000 0.000000000000e+000 
1.000000000000e+001 0.000000000000e+000 9.000000000000e+001 -8.829000000000e+005 0.000000000000e+000 0.000000000000e+000 0.000000000000e+000 0.000000000000e+000 0.000000000000e+000 
2.000000000000e+001 0.000000000000e+000 9.000000000000e+001 -8.829000000000e+005 0.000000000000e+000 0.000000000000e+000 0.000000000000e+000 0.000000000000e+000 0.000000000000e+000 
3.000000000000e+001 0.000000000000e+000 9.000000000000e+001 -8.829000000000e+005 0.000000000000e+000 0.000000000000e+000 0.000000000000e+000 0.000000000000e+000 0.000000000000e+000 
4.000000000000e+001 0.000000000000e+000 9.000000000000e+001 -8.829000000000e+005 0.000000000000e+000 0.000000000000e+000 0.000000000000e+000 0.000000000000e+000 0.000000000000e+000 
5.000000000000e+001 0.000000000000e+000 9.000000000000e+001 -8.829000000000e+005 0.000000000000e+000 0.000000000000e+000 0.000000000000e+000 0.000000000000e+000 0.000000000000e+000 
6.000000000000e+001 0.000000000000e+000 9.000000000000e+001 -8.829000000000e+005 0.000000000000e+000 0.000000000000e+000 0.000000000000e+000 0.000000000000e+000 0.000000000000e+000 
7.000000000000e+001 0.000000000000e+000 9.000000000000e+001 -8.829000000000e+005 0.000000000000e+000 0.000000000000e+000 0.000000000000e+000 0.000000000000e+000 0.000000000000e+000 
8.000000000000e+001 0.000000000000e+000 9.000000000000e+001 -8.829000000000e+005 0.000000000000e+000 0.000000000000e+000 0.000000000000e+000 0.000000000000e+000 0.000000000000e+000 
9.000000000000e+001 0.000000000000e+000 9.000000000000e+001 -8.829000000000e+005 0.000000000000e+000 0.000000000000e+000 0.000000000000e+000 0.000000000000e+000 0.000000000000e+000 
1.000000000000e+002 0.000000000000e+000 9.000000000000e+001 -8.829000000000e+005 0.000000000000e+000 0.000000000000e+000 0.000000000000e+000 0.000000000000e+000 0.000000000000e+000 
0.000000000000e+000 0.000000000000e+000 1.000000000000e+002 -9.810000000000e+005 0.000000000000e+000 0.000000000000e+000 0.000000000000e+000 0.000000000000e+000 0.000000000000e+000 
1.000000000000e+001 0.000000000000e+000 1.000000000000e+002 -9.810000000000e+005 0.000000000000e+000 0.000000000000e+000 0.000000000000e+000 0.000000000000e+000 0.000000000000e+000 
2.000000000000e+001 0.000000000000e+000 1.000000000000e+002 -9.810000000000e+005 0.000000000000e+000 0.000000000000e+000 0.000000000000e+000 0.000000000000e+000 0.000000000000e+000 
3.000000000000e+001 0.000000000000e+000 1.000000000000e+002 -9.810000000000e+005 0.000000000000e+000 0.000000000000e+000 0.000000000000e+000 0.000000000000e+000 0.000000000000e+000 
4.000000000000e+001 0.000000000000e+000 1.000000000000e+002 -9.810000000000e+005 0.000000000000e+000 0.000000000000e+000 0.000000000000e+000 0.000000000000e+000 0.000000000000e+000 
5.000000000000e+001 0.000000000000e+000 1.000000000000e+002 -9.810000000000e+005 0.000000000000e+000 0.000000000000e+000 0.000000000000e+000 0.000000000000e+000 0.000000000000e+000 
6.000000000000e+001 0.000000000000e+000 1.000000000000e+002 -9.810000000000e+005 0.000000000000e+000 0.000000000000e+000 0.000000000000e+000 0.000000000000e+000 0.000000000000e+000 
7.000000000000e+001 0.000000000000e+000 1.000000000000e+002 -9.810000000000e+005 0.000000000000e+000 0.000000000000e+000 0.000000000000e+000 0.000000000000e+000 0.000000000000e+000 
8.000000000000e+001 0.000000000000e+000 1.000000000000e+002 -9.810000000000e+005 0.000000000000e+000 0.000000000000e+000 0.000000000000e+000 0.000000000000e+000 0.000000000000e+000 
9.000000000000e+001 0.000000000000e+000 1.000000000000e+002 -9.810000000000e+005 0.000000000000e+000 0.000000000000e+000 0.000000000000e+000 0.000000000000e+000 0.000000000000e+000 
1.000000000000e+002 0.000000000000e+000 1.000000000000e+002 -9.810000000000e+005 0.000000000000e+000 0.000000000000e+000 0.000000000000e+000 0.000000000000e+000 0.000000000000e+000 
1  13  12  1
1  2  13  1
2  14  13  2
2  3  14  2
3  15  14  3
3  4  15  3
4  16  15  4
4  5  16  4
5  17  16  5
5  6  17  5
6  18  17  6
6  7  18  6
7  19  18  7
7  8  19  7
8  20  19  8
8  9  20  8
9  21  20  9
9  10  21  9
10  22  21  10
10  11  22  10
12  24  23  12
12  13  24  12
13  25  24  13
13  14  25  13
14  26  25  14
14  15  26  14
15  27  26  15
15  16  27  15
16  28  27  16
16  17  28  16
17  29  28  17
17  18  29  17
18  30  29  18
18  19  30  18
19  31  30  19
19  20  31  19
20  32  31  20
20  21  32  20
21  33  32  21
21  22  33  21
23  35  34  23
23  24  35  23
24  36  35  24
24  25  36  24
25  37  36  25
25  26  37  25
26  38  37  26
26  27  38  26
27  39  38  27
27  28  39  27
28  40  39  28
28  29  40  28
29  41  40  29
29  30  41  29
30  42  41  30
30  31  42  30
31  43  42  31
31  32  43  31
32  44  43  32
32  33  44  32
34  46  45  34
34  35  46  34
35  47  46  35
35  36  47  35
36  48  47  36
36  37  48  36
37  49  48  37
37  38  49  37
38  50  49  38
38  39  50  38
39  51  50  39
39  40  51  39
40  52  51  40
40  41  52  40
41  53  52  41
41  42  53  41
42  54  53  42
42  43  54  42
43  55  54  43
43  44  55  43
45  57  56  45
45  46  57  45
46  58  57  46
46  47  58  46
47  59  58  47
47  48  59  47
48  60  59  48
48  49  60  48
49  61  60  49
49  50  61  49
50  62  61  50
50  51  62  50
51  63  62  51
51  52  63  51
52  64  63  52
52  53  64  52
53  65  64  53
53  54  65  53
54  66  65  54
54  55  66  54
56  68  67  56
56  57  68  56
57  69  68  57
57  58  69  57
58  70  69  58
58  59  70  58
59  71  70  59
59  60  71  59
60  72  71  60
60  61  72  60
61  73  72  61
61  62  73  61
62  74  73  62
62  63  74  62
63  75  74  63
63  64  75  63
64  76  75  64
64  65  76  64
65  77  76  65
65  66  77  65
67  79  78  67
67  68  79  67
68  80  79  68
68  69  80  68
69  81  80  69
69  70  81  69
70  82  81  70
70  71  82  70
71  83  82  71
71  72  83  71
72  84  83  72
72  73  84  72
73  85  84  73
73  74  85  73
74  86  85  74
74  75  86  74
75  87  86  75
75  76  87  75
76  88  87  76
76  77  88  76
78  90  89  78
78  79  90  78
79  91  90  79
79  80  91  79
80  92  91  80
80  81  92  80
81  93  92  81
81  82  93  81
82  94  93  82
82  83  94  82
83  95  94  83
83  84  95  83
84  96  95  84
84  85  96  84
85  97  96  85
85  86  97  85
86  98  97  86
86  87  98  86
87  99  98  87
87  88  99  87
89  101  100  89
89  90  101  89
90  102  101  90
90  91  102  90
91  103  102  91
91  92  103  91
92  104  103  92
92  93  104  92
93  105  104  93
93  94  105  93
94  106  105  94
94  95  106  94
95  107  106  95
95  96  107  95
96  108  107  96
96  97  108  96
97  109  108  97
97  98  109  97
98  110  109  98
98  99  110  98
100  112  111  100
100  101  112  100
101  113  112  101
101  102  113  101
102  114  113  102
102  103  114  102
103  115  114  103
103  104  115  103
104  116  115  104
104  105  116  104
105  117  116  105
105  106  117  105
106  118  117  106
106  107  118  106
107  119  118  107
107  108  119  107
108  120  119  108
108  109  120  108
109  121  120  109
109  110  121  109
VARIABLES  = "X","Y","Z", "PRESSURE1", "TEMPERATURE1", "CONCENTRATION1", "VELOCITY_X1", "VELOCITY_Y1", "VELOCITY_Z1"
ZONE T="1.000000000000e+007s", N=121, E=200, F=FEPOINT, ET=QUADRILATERAL
STRANDID=1, SOLUTIONTIME=1.000000000000e+007
0.000000000000e+000 0.000000000000e+000 0.000000000000e+000 6.701416212182e+002 1.000000000000e+000 1.000000000000e+000 9.474351741534e-009 4.950910889156e-010 0.000000000000e+000 
1.000000000000e+001 0.000000000000e+000 0.000000000000e+000 5.770485311119e+002 -7.995987839668e-002 4.751142760540e-001 8.826625206379e-009 4.565573905518e-010 0.000000000000e+000 
2.000000000000e+001 0.000000000000e+000 0.000000000000e+000 4.933693437994e+002 -4.782471704424e-003 1.586787154347e-001 7.956085699621e-009 3.828570965775e-010 0.000000000000e+000 
3.000000000000e+001 0.000000000000e+000 0.000000000000e+000 4.177352659800e+002 -2.856641228780e-005 3.600726729342e-002 7.246390371281e-009 3.029256288530e-010 0.000000000000e+000 
4.000000000000e+001 0.000000000000e+000 0.000000000000e+000 3.485458934890e+002 6.187355371585e-005 5.282145280682e-003 6.695478475708e-009 2.301083173898e-010 0.000000000000e+000 
5.000000000000e+001 0.000000000000e+000 0.000000000000e+000 2.842972777275e+002 -1.002376250304e-005 4.326573022429e-004 6.282777106315e-009 1.690503721476e-010 0.000000000000e+000 
6.000000000000e+001 0.000000000000e+000 0.000000000000e+000 2.237112973804e+002 1.010737935740e-006 4.200341847757e-006 5.983412265968e-009 1.196429706497e-010 0.000000000000e+000 
7.000000000000e+001 0.000000000000e+000 0.000000000000e+000 1.657503315028e+002 -8.661593097712e-008 -3.353730661823e-006 5.775024557865e-009 7.979080713843e-011 0.000000000000e+000 
8.000000000000e+001 0.000000000000e+000 0.000000000000e+000 1.095815080662e+002 1.137752908048e-008 -4.152772109070e-007 5.640237580383e-009 4.682542015922e-011 0.000000000000e+000 
9.000000000000e+001 0.000000000000e+000 0.000000000000e+000 5.452487740868e+001 -2.372231558767e-009 -2.638400285255e-008 5.567136650259e-009 1.806844358401e-011 0.000000000000e+000 
1.000000000000e+002 0.000000000000e+000 0.000000000000e+000 0.000000000000e+000 4.566374484937e-010 -1.711935824133e-009 5.558102428409e-009 0.000000000000e+000 0.000000000000e+000 
0.000000000000e+000 0.000000000000e+000 1.000000000000e+001 -9.743486509542e+004 1.000000000000e+000 1.000000000000e+000 9.421213932125e-009 1.193746239197e-009 0.000000000000e+000 
1.000000000000e+001 0.000000000000e+000 1.000000000000e+001 -9.752765842028e+004 -1.668618318117e-001 4.764189730365e-001 8.925299538404e-009 9.448720665785e-010 0.000000000000e+000 
2.000000000000e+001 0.000000000000e+000 1.000000000000e+001 -9.761065321095e+004 -2.108715119447e-002 1.529050317978e-001 8.012345998293e-009 7.940523701580e-010 0.000000000000e+000 
3.000000000000e+001 0.000000000000e+000 1.000000000000e+001 -9.768548708668e+004 2.872475230224e-003 2.980540033404e-002 7.276490976164e-009 6.286648801958e-010 0.000000000000e+000 
4.000000000000e+001 0.000000000000e+000 1.000000000000e+001 -9.775392448488e+004 -2.632748815055e-004 2.367305806297e-003 6.710314199101e-009 4.779699400577e-010 0.000000000000e+000 
5.000000000000e+001 0.000000000000e+000 1.000000000000e+001 -9.781753403998e+004 1.111747899659e-005 -3.454810324594e-004 6.288335186108e-009 3.519471240036e-010 0.000000000000e+000 
6.000000000000e+001 0.000000000000e+000 1.000000000000e+001 -9.787760120985e+004 1.141222766902e-006 -1.206782400293e-004 5.982521383093e-009 2.503976925174e-010 0.000000000000e+000 
7.000000000000e+001 0.000000000000e+000 1.000000000000e+001 -9.793514573972e+004 -2.931104516997e-007 -1.482428623088e-005 5.768671796493e-009 1.689892680979e-010 0.000000000000e+000 
8.000000000000e+001 0.000000000000e+000 1.000000000000e+001 -9.799097458832e+004 3.700892740796e-008 -8.024034421699e-007 5.628290155935e-009 1.022533262070e-010 0.000000000000e+000 
9.000000000000e+001 0.000000000000e+000 1.000000000000e+001 -9.804574099921e+004 -5.639957385265e-009 1.273263619379e-008 5.548654628900e-009 4.475753116950e-011 0.000000000000e+000 
1.000000000000e+002 0.000000000000e+000 1.000000000000e+001 -9.810000000000e+004 2.555491252654e-009 1.142162048815e-008 5.540033984824e-009 9.034221792006e-012 0.000000000000e+000 
0.000000000000e+000 0.000000000000e+000 2.000000000000e+001 -1.955504847758e+005 1.000000000000e+000 1.000000000000e+000 9.245284860839e-009 2.364685427092e-009 0.000000000000e+000 
1.000000000000e+001 0.000000000000e+000 2.000000000000e+001 -1.956421639059e+005 -1.751721672768e-001 4.739891855599e-001 8.719777226201e-009 1.974882272225e-009 0.000000000000e+000 