VARIABLES = "X","Y","Z","VX","VY","VZ"
ZONE T="0.000000000000e+000s", I=200, F=POINT, C=BLACK
STRANDID=1, SOLUTIONTIME=0.000000000000e+000
3.333333333333e+000 0.000000000000e+000 6.666666666667e+000 0.000000000000e+000 0.000000000000e+000 0.000000000000e+000 
6.666666666667e+000 0.000000000000e+000 3.333333333333e+000 0.000000000000e+000 0.000000000000e+000 0.000000000000e+000 
1.333333333333e+001 0.000000000000e+000 6.666666666667e+000 0.000000000000e+000 0.000000000000e+000 0.000000000000e+000 
1.666666666667e+001 0.000000000000e+000 3.333333333333e+000 0.000000000000e+000 0.000000000000e+000 0.000000000000e+000 
2.333333333333e+001 0.000000000000e+000 6.666666666667e+000 0.000000000000e+000 0.000000000000e+000 0.000000000000e+000 
2.666666666667e+001 0.000000000000e+000 3.333333333333e+000 0.000000000000e+000 0.000000000000e+000 0.000000000000e+000 
3.333333333333e+001 0.000000000000e+000 6.666666666667e+000 0.000000000000e+000 0.000000000000e+000 0.000000000000e+000 
3.666666666667e+001 0.000000000000e+000 3.333333333333e+000 0.000000000000e+000 0.000000000000e+000 0.000000000000e+000 
4.333333333333e+001 0.000000000000e+000 6.666666666667e+000 0.000000000000e+000 0.000000000000e+000 0.000000000000e+000 
4.666666666667e+001 0.000000000000e+000 3.333333333333e+000 0.000000000000e+000 0.000000000000e+000 0.000000000000e+000 
5.333333333333e+001 0.000000000000e+000 6.666666666667e+000 0.000000000000e+000 0.000000000000e+000 0.000000000000e+000 
5.666666666667e+001 0.000000000000e+000 3.333333333333e+000 0.000000000000e+000 0.000000000000e+000 0.000000000000e+000 
6.333333333333e+001 0.000000000000e+000 6.666666666667e+000 0.000000000000e+000 0.000000000000e+000 0.000000000000e+000 
6.666666666667e+001 0.000000000000e+000 3.333333333333e+000 0.000000000000e+000 0.000000000000e+000 0.000000000000e+000 
7.333333333333e+001 0.000000000000e+000 6.666666666667e+000 0.000000000000e+000 0.000000000000e+000 0.000000000000e+000 
7.666666666667e+001 0.000000000000e+000 3.333333333333e+000 0.000000000000e+000 0.000000000000e+000 0.000000000000e+000 
8.333333333333e+001 0.000000000000e+000 6.666666666667e+000 0.000000000000e+000 0.000000000000e+000 0.000000000000e+000 
8.666666666667e+001 0.000000000000e+000 3.333333333333e+000 0.000000000000e+000 0.000000000000e+000 0.000000000000e+000 
9.333333333333e+001 0.000000000000e+000 6.666666666667e+000 0.000000000000e+000 0.000000000000e+000 0.000000000000e+000 
9.666666666667e+001 0.000000000000e+000 3.333333333333e+000 0.000000000000e+000 0.000000000000e+000 0.000000000000e+000 
3.333333333333e+000 0.000000000000e+000 1.666666666667e+001 0.000000000000e+000 0.000000000000e+000 0.000000000000e+000 
6.666666666667e+000 0.000000000000e+000 1.333333333333e+001 0.000000000000e+000 0.000000000000e+000 0.000000000000e+000 
1.333333333333e+001 0.000000000000e+000 1.666666666667e+001 0.000000000000e+000 0.000000000000e+000 0.000000000000e+000 
1.666666666667e+001 0.000000000000e+000 1.333333333333e+001 0.000000000000e+000 0.000000000000e+000 0.000000000000e+000 
2.333333333333e+001 0.000000000000e+000 1.666666666667e+001 0.000000000000e+000 0.000000000000e+000 0.000000000000e+000 
2.666666666667e+001 0.000000000000e+000 1.333333333333e+001 0.000000000000e+000 0.000000000000e+000 0.000000000000e+000 
3.333333333333e+001 0.000000000000e+000 1.666666666667e+001 0.000000000000e+000 0.000000000000e+000 0.000000000000e+000 
3.666666666667e+001 0.000000000000e+000 1.333333333333e+001 0.000000000000e+000 0.000000000000e+000 0.000000000000e+000 
4.333333333333e+001 0.000000000000e+000 1.666666666667e+001 0.000000000000e+000 0.000000000000e+000 0.000000000000e+000 
4.666666666667e+001 0.000000000000e+000 1.333333333333e+001 0.000000000000e+000 0.000000000000e+000 0.000000000000e+000 
5.333333333333e+001 0.000000000000e+000 1.666666666667e+001 0.000000000000e+000 0.000000000000e+000 0.000000000000e+000 
5.666666666667e+001 0.000000000000e+000 1.333333333333e+001 0.000000000000e+000 0.000000000000e+000 0.000000000000e+000 
6.333333333333e+001 0.000000000000e+000 1.666666666667e+001 0.000000000000e+000 0.000000000000e+000 0.000000000000e+000 
6.666666666667e+001 0.000000000000e+000 1.333333333333e+001 0.000000000000e+000 0.000000000000e+000 0.000000000000e+000 
7.333333333333e+001 0.000000000000e+000 1.666666666667e+001 0.000000000000e+000 0.000000000000e+000 0.000000000000e+000 
7.666666666667e+001 0.000000000000e+000 1.333333333333e+001 0.000000000000e+000 0.000000000000e+000 0.000000000000e+000 
8.333333333333e+001 0.000000000000e+000 1.666666666667e+001 0.000000000000e+000 0.000000000000e+000 0.000000000000e+000 
8.666666666667e+001 0.000000000000e+000 1.333333333333e+001 0.000000000000e+000 0.000000000000e+000 0.000000000000e+000 
9.333333333333e+001 0.000000000000e+000 1.666666666667e+001 0.000000000000e+000 0.000000000000e+000 0.000000000000e+000 
9.666666666667e+001 0.000000000000e+000 1.333333333333e+001 0.000000000000e+000 0.000000000000e+000 0.000000000000e+000 
3.333333333333e+000 0.000000000000e+000 2.666666666667e+001 0.000000000000e+000 0.000000000000e+000 0.000000000000e+000 
6.666666666667e+000 0.000000000000e+000 2.333333333333e+001 0.000000000000e+000 0.000000000000e+000 0.000000000000e+000 
1.333333333333e+001 0.000000000000e+000 2.666666666667e+001 0.000000000000e+000 0.000000000000e+000 0.000000000000e+000 
1.666666666667e+001 0.000000000000e+000 2.333333333333e+001 0.000000000000e+000 0.000000000000e+000 0.000000000000e+000 
2.333333333333e+001 0.000000000000e+000 2.666666666667e+001 0.000000000000e+000 0.000000000000e+000 0.000000000000e+000 
2.666666666667e+001 0.000000000000e+000 2.333333333333e+001 0.000000000000e+000 0.000000000000e+000 0.000000000000e+000 
3.333333333333e+001 0.000000000000e+000 2.666666666667e+001 0.000000000000e+000 0.000000000000e+000 0.000000000000e+000 
3.666666666667e+001 0.000000000000e+000 2.333333333333e+001 0.000000000000e+000 0.000000000000e+000 0.000000000000e+000 
4.333333333333e+001 0.000000000000e+000 2.666666666667e+001 0.000000000000e+000 0.000000000000e+000 0.000000000000e+000 
4.666666666667e+001 0.000000000000e+000 2.333333333333e+001 0.000000000000e+000 0.000000000000e+000 0.000000000000e+000 
5.333333333333e+001 0.000000000000e+000 2.666666666667e+001 0.000000000000e+000 0.000000000000e+000 0.000000000000e+000 
5.666666666667e+001 0.000000000000e+000 2.333333333333e+001 0.000000000000e+000 0.000000000000e+000 0.000000000000e+000 
6.333333333333e+001 0.000000000000e+000 2.666666666667e+001 0.000000000000e+000 0.000000000000e+000 0.000000000000e+000 
6.666666666667e+001 0.000000000000e+000 2.333333333333e+001 0.000000000000e+000 0.000000000000e+000 0.000000000000e+000 
7.333333333333e+001 0.000000000000e+000 2.666666666667e+001 0.000000000000e+000 0.000000000000e+000 0.000000000000e+000 
7.666666666667e+001 0.000000000000e+000 2.333333333333e+001 0.000000000000e+000 0.000000000000e+000 0.000000000000e+000 
8.333333333333e+001 0.000000000000e+000 2.666666666667e+001 0.000000000000e+000 0.000000000000e+000 0.000000000000e+000 
8.666666666667e+001 0.000000000000e+000 2.333333333333e+001 0.000000000000e+000 0.000000000000e+000 0.000000000000e+000 
9.333333333333e+001 0.000000000000e+000 2.666666666667e+001 0.000000000000e+000 0.000000000000e+000 0.000000000000e+000 
9.666666666667e+001 0.000000000000e+000 2.333333333333e+001 0.000000000000e+000 0.000000000000e+000 0.000000000000e+000 
3.333333333333e+000 0.000000000000e+000 3.666666666667e+001 0.000000000000e+000 0.000000000000e+000 0.000000000000e+000 
6.666666666667e+000 0.000000000000e+000 3.333333333333e+001 0.000000000000e+000 0.000000000000e+000 0.000000000000e+000 
1.333333333333e+001 0.000000000000e+000 3.666666666667e+001 0.000000000000e+000 0.000000000000e+000 0.000000000000e+000 
1.666666666667e+001 0.000000000000e+000 3.333333333333e+001 0.000000000000e+000 0.000000000000e+000 0.000000000000e+000 
2.333333333333e+001 0.000000000000e+000 3.666666666667e+001 0.000000000000e+000 0.000000000000e+000 0.000000000000e+000 
2.666666666667e+001 0.000000000000e+000 3.333333333333e+001 0.000000000000e+000 0.000000000000e+000 0.000000000000e+000 
3.333333333333e+001 0.000000000000e+000 3.666666666667e+001 0.000000000000e+000 0.000000000000e+000 0.000000000000e+000 
3.666666666667e+001 0.000000000000e+000 3.333333333333e+001 0.000000000000e+000 0.000000000000e+000 0.000000000000e+000 
4.333333333333e+001 0.000000000000e+000 3.666666666667e+001 0.000000000000e+000 0.000000000000e+000 0.000000000000e+000 
4.666666666667e+001 0.000000000000e+000 3.333333333333e+001 0.000000000000e+000 0.000000000000e+000 0.000000000000e+000 
5.333333333333e+001 0.000000000000e+000 3.666666666667e+001 0.000000000000e+000 0.000000000000e+000 0.000000000000e+000 
5.666666666667e+001 0.000000000000e+000 3.333333333333e+001 0.000000000000e+000 0.000000000000e+000 0.000000000000e+000 
6.333333333333e+001 0.000000000000e+000 3.666666666667e+001 0.000000000000e+000 0.000000000000e+000 0.000000000000e+000 
6.666666666667e+001 0.000000000000e+000 3.333333333333e+001 0.000000000000e+000 0.000000000000e+000 0.000000000000e+000 
7.333333333333e+001 0.000000000000e+000 3.666666666667e+001 0.000000000000e+000 0.000000000000e+000 0.000000000000e+000 
7.666666666667e+001 0.000000000000e+000 3.333333333333e+001 0.000000000000e+000 0.000000000000e+000 0.000000000000e+000 
8.333333333333e+001 0.000000000000e+000 3.666666666667e+001 0.000000000000e+000 0.000000000000e+000 0.000000000000e+000 
8.666666666667e+001 0.000000000000e+000 3.333333333333e+001 0.000000000000e+000 0.000000000000e+000 0.000000000000e+000 
9.333333333333e+001 0.000000000000e+000 3.666666666667e+001 0.000000000000e+000 0.000000000000e+000 0.000000000000e+000 
9.666666666667e+001 0.000000000000e+000 3.333333333333e+001 0.000000000000e+000 0.000000000000e+000 0.000000000000e+000 
3.333333333333e+000 0.000000000000e+000 4.666666666667e+001 0.000000000000e+000 0.000000000000e+000 0.000000000000e+000 
6.666666666667e+000 0.000000000000e+000 4.333333333333e+001 0.000000000000e+000 0.000000000000e+000 0.000000000000e+000 
1.333333333333e+001 0.000000000000e+000 4.666666666667e+001 0.000000000000e+000 0.000000000000e+000 0.000000000000e+000 
1.666666666667e+001 0.000000000000e+000 4.333333333333e+001 0.000000000000e+000 0.000000000000e+000 0.000000000000e+000 
2.333333333333e+001 0.000000000000e+000 4.666666666667e+001 0.000000000000e+000 0.000000000000e+000 0.000000000000e+000 
2.666666666667e+001 0.000000000000e+000 4.333333333333e+001 0.000000000000e+000 0.000000000000e+000 0.000000000000e+000 
3.333333333333e+001 0.000000000000e+000 4.666666666667e+001 0.000000000000e+000 0.000000000000e+000 0.000000000000e+000 
3.666666666667e+001 0.000000000000e+000 4.333333333333e+001 0.000000000000e+000 0.000000000000e+000 0.000000000000e+000 
4.333333333333e+001 0.000000000000e+000 4.666666666667e+001 0.000000000000e+000 0.000000000000e+000 0.000000000000e+000 
4.666666666667e+001 0.000000000000e+000 4.333333333333e+001 0.000000000000e+000 0.000000000000e+000 0.000000000000e+000 
5.333333333333e+001 0.000000000000e+000 4.666666666667e+001 0.000000000000e+000 0.000000000000e+000 0.000000000000e+000 
5.666666666667e+001 0.000000000000e+000 4.333333333333e+001 0.000000000000e+000 0.000000000000e+000 0.000000000000e+000 
6.333333333333e+001 0.000000000000e+000 4.666666666667e+001 0.000000000000e+000 0.000000000000e+000 0.000000000000e+000 
6.666666666667e+001 0.000000000000e+000 4.333333333333e+001 0.000000000000e+000 0.000000000000e+000 0.000000000000e+000 
7.333333333333e+001 0.000000000000e+000 4.666666666667e+001 0.000000000000e+000 0.000000000000e+000 0.000000000000e+000 
7.666666666667e+001 0.000000000000e+000 4.333333333333e+001 0.000000000000e+000 0.000000000000e+000 0.000000000000e+000 
8.333333333333e+001 0.000000000000e+000 4.666666666667e+001 0.000000000000e+000 0.000000000000e+000 0.000000000000e+000 
8.666666666667e+001 0.000000000000e+000 4.333333333333e+001 0.000000000000e+000 0.000000000000e+000 0.000000000000e+000 
9.333333333333e+001 0.000000000000e+000 4.666666666667e+001 0.000000000000e+000 0.000000000000e+000 0.000000000000e+000 
9.666666666667e+001 0.000000000000e+000 4.333333333333e+001 0.000000000000e+000 0.000000000000e+000 0.000000000000e+000 
3.333333333333e+000 0.000000000000e+000 5.666666666667e+001 0.000000000000e+000 0.000000000000e+000 0.000000000000e+000 
6.666666666667e+000 0.000000000000e+000 5.333333333333e+001 0.000000000000e+000 0.000000000000e+000 0.000000000000e+000 
1.333333333333e+001 0.000000000000e+000 5.666666666667e+001 0.000000000000e+000 0.000000000000e+000 0.000000000000e+000 
1.666666666667e+001 0.000000000000e+000 5.333333333333e+001 0.000000000000e+000 0.000000000000e+000 0.000000000000e+000 
2.333333333333e+001 0.000000000000e+000 5.666666666667e+001 0.000000000000e+000 0.000000000000e+000 0.000000000000e+000 
2.666666666667e+001 0.000000000000e+000 5.333333333333e+001 0.000000000000e+000 0.000000000000e+000 0.000000000000e+000 
3.333333333333e+001 0.000000000000e+000 5.666666666667e+001 0.000000000000e+000 0.000000000000e+000 0.000000000000e+000 
3.666666666667e+001 0.000000000000e+000 5.333333333333e+001 0.000000000000e+000 0.000000000000e+000 0.000000000000e+000 
4.333333333333e+001 0.000000000000e+000 5.666666666667e+001 0.000000000000e+000 0.000000000000e+000 0.000000000000e+000 
4.666666666667e+001 0.000000000000e+000 5.333333333333e+001 0.000000000000e+000 0.000000000000e+000 0.000000000000e+000 
5.333333333333e+001 0.000000000000e+000 5.666666666667e+001 0.000000000000e+000 0.000000000000e+000 0.000000000000e+000 
5.666666666667e+001 0.000000000000e+000 5.333333333333e+001 0.000000000000e+000 0.000000000000e+000 0.000000000000e+000 
6.333333333333e+001 0.000000000000e+000 5.666666666667e+001 0.000000000000e+000 0.000000000000e+000 0.000000000000e+000 
6.666666666667e+001 0.000000000000e+000 5.333333333333e+001 0.000000000000e+000 0.000000000000e+000 0.000000000000e+000 
7.333333333333e+001 0.000000000000e+000 5.666666666667e+001 0.000000000000e+000 0.000000000000e+000 0.000000000000e+000 
7.666666666667e+001 0.000000000000e+000 5.333333333333e+001 0.000000000000e+000 0.000000000000e+000 0.000000000000e+000 
8.333333333333e+001 0.000000000000e+000 5.666666666667e+001 0.000000000000e+000 0.000000000000e+000 0.000000000000e+000 
8.666666666667e+001 0.000000000000e+000 5.333333333333e+001 0.000000000000e+000 0.000000000000e+000 0.000000000000e+000 
9.333333333333e+001 0.000000000000e+000 5.666666666667e+001 0.000000000000e+000 0.000000000000e+000 0.000000000000e+000 
9.666666666667e+001 0.000000000000e+000 5.333333333333e+001 0.000000000000e+000 0.000000000000e+000 0.000000000000e+000 
3.333333333333e+000 0.000000000000e+000 6.666666666667e+001 0.000000000000e+000 0.000000000000e+000 0.000000000000e+000 
6.666666666667e+000 0.000000000000e+000 6.333333333333e+001 0.000000000000e+000 0.000000000000e+000 0.000000000000e+000 
1.333333333333e+001 0.000000000000e+000 6.666666666667e+001 0.000000000000e+000 0.000000000000e+000 0.000000000000e+000 
1.666666666667e+001 0.000000000000e+000 6.333333333333e+001 0.000000000000e+000 0.000000000000e+000 0.000000000000e+000 
2.333333333333e+001 0.000000000000e+000 6.666666666667e+001 0.000000000000e+000 0.000000000000e+000 0.000000000000e+000 
2.666666666667e+001 0.000000000000e+000 6.333333333333e+001 0.000000000000e+000 0.000000000000e+000 0.000000000000e+000 
3.333333333333e+001 0.000000000000e+000 6.666666666667e+001 0.000000000000e+000 0.000000000000e+000 0.000000000000e+000 
3.666666666667e+001 0.000000000000e+000 6.333333333333e+001 0.000000000000e+000 0.000000000000e+000 0.000000000000e+000 
4.333333333333e+001 0.000000000000e+000 6.666666666667e+001 0.000000000000e+000 0.000000000000e+000 0.000000000000e+000 
4.666666666667e+001 0.000000000000e+000 6.333333333333e+001 0.000000000000e+000 0.000000000000e+000 0.000000000000e+000 
5.333333333333e+001 0.000000000000e+000 6.666666666667e+001 0.000000000000e+000 0.000000000000e+000 0.000000000000e+000 
5.666666666667e+001 0.000000000000e+000 6.333333333333e+001 0.000000000000e+000 0.000000000000e+000 0.000000000000e+000 
6.333333333333e+001 0.000000000000e+000 6.666666666667e+001 0.000000000000e+000 0.000000000000e+000 0.000000000000e+000 
6.666666666667e+001 0.000000000000e+000 6.333333333333e+001 0.000000000000e+000 0.000000000000e+000 0.000000000000e+000 
7.333333333333e+001 0.000000000000e+000 6.666666666667e+001 0.000000000000e+000 0.000000000000e+000 0.000000000000e+000 
7.666666666667e+001 0.000000000000e+000 6.333333333333e+001 0.000000000000e+000 0.000000000000e+000 0.000000000000e+000 
8.333333333333e+001 0.000000000000e+000 6.666666666667e+001 0.000000000000e+000 0.000000000000e+000 0.000000000000e+000 
8.666666666667e+001 0.000000000000e+000 6.333333333333e+001 0.000000000000e+000 0.000000000000e+000 0.000000000000e+000 
9.333333333333e+001 0.000000000000e+000 6.666666666667e+001 0.000000000000e+000 0.000000000000e+000 0.000000000000e+000 
9.666666666667e+001 0.000000000000e+000 6.333333333333e+001 0.000000000000e+000 0.000000000000e+000 0.000000000000e+000 
3.333333333333e+000 0.000000000000e+000 7.666666666667e+001 0.000000000000e+000 0.000000000000e+000 0.000000000000e+000 
6.666666666667e+000 0.000000000000e+000 7.333333333333e+001 0.000000000000e+000 0.000000000000e+000 0.000000000000e+000 
1.333333333333e+001 0.000000000000e+000 7.666666666667e+001 0.000000000000e+000 0.000000000000e+000 0.000000000000e+000 
1.666666666667e+001 0.000000000000e+000 7.333333333333e+001 0.000000000000e+000 0.000000000000e+000 0.000000000000e+000 
2.333333333333e+001 0.000000000000e+000 7.666666666667e+001 0.000000000000e+000 0.000000000000e+000 0.000000000000e+000 
2.666666666667e+001 0.000000000000e+000 7.333333333333e+001 0.000000000000e+000 0.000000000000e+000 0.000000000000e+000 
3.333333333333e+001 0.000000000000e+000 7.666666666667e+001 0.000000000000e+000 0.000000000000e+000 0.000000000000e+000 
3.666666666667e+001 0.000000000000e+000 7.333333333333e+001 0.000000000000e+000 0.000000000000e+000 0.000000000000e+000 
4.333333333333e+001 0.000000000000e+000 7.666666666667e+001 0.000000000000e+000 0.000000000000e+000 0.000000000000e+000 
4.666666666667e+001 0.000000000000e+000 7.333333333333e+001 0.000000000000e+000 0.000000000000e+000 0.000000000000e+000 
5.333333333333e+001 0.000000000000e+000 7.666666666667e+001 0.000000000000e+000 0.000000000000e+000 0.000000000000e+000 
5.666666666667e+001 0.000000000000e+000 7.333333333333e+001 0.000000000000e+000 0.000000000000e+000 0.000000000000e+000 
6.333333333333e+001 0.000000000000e+000 7.666666666667e+001 0.000000000000e+000 0.000000000000e+000 0.000000000000e+000 
6.666666666667e+001 0.000000000000e+000 7.333333333333e+001 0.000000000000e+000 0.000000000000e+000 0.000000000000e+000 
7.333333333333e+001 0.000000000000e+000 7.666666666667e+001 0.000000000000e+000 0.000000000000e+000 0.000000000000e+000 
7.666666666667e+001 0.000000000000e+000 7.333333333333e+001 0.000000000000e+000 0.000000000000e+000 0.000000000000e+000 
8.333333333333e+001 0.000000000000e+000 7.666666666667e+001 0.000000000000e+000 0.000000000000e+000 0.000000000000e+000 
8.666666666667e+001 0.000000000000e+000 7.333333333333e+001 0.000000000000e+000 0.000000000000e+000 0.000000000000e+000 
9.333333333333e+001 0.000000000000e+000 7.666666666667e+001 0.000000000000e+000 0.000000000000e+000 0.000000000000e+000 
9.666666666667e+001 0.000000000000e+000 7.333333333333e+001 0.000000000000e+000 0.000000000000e+000 0.000000000000e+000 
3.333333333333e+000 0.000000000000e+000 8.666666666667e+001 0.000000000000e+000 0.000000000000e+000 0.000000000000e+000 
6.666666666667e+000 0.000000000000e+000 8.333333333333e+001 0.000000000000e+000 0.000000000000e+000 0.000000000000e+000 
1.333333333333e+001 0.000000000000e+000 8.666666666667e+001 0.000000000000e+000 0.000000000000e+000 0.000000000000e+000 
1.666666666667e+001 0.000000000000e+000 8.333333333333e+001 0.000000000000e+000 0.000000000000e+000 0.000000000000e+000 
2.333333333333e+001 0.000000000000e+000 8.666666666667e+001 0.000000000000e+000 0.000000000000e+000 0.000000000000e+000 
2.666666666667e+001 0.000000000000e+000 8.333333333333e+001 0.000000000000e+000 0.000000000000e+000 0.000000000000e+000 
3.333333333333e+001 0.000000000000e+000 8.666666666667e+001 0.000000000000e+000 0.000000000000e+000 0.000000000000e+000 
3.666666666667e+001 0.000000000000e+000 8.333333333333e+001 0.000000000000e+000 0.000000000000e+000 0.000000000000e+000 
4.333333333333e+001 0.000000000000e+000 8.666666666667e+001 0.000000000000e+000 0.000000000000e+000 0.000000000000e+000 
4.666666666667e+001 0.000000000000e+000 8.333333333333e+001 0.000000000000e+000 0.000000000000e+000 0.000000000000e+000 
5.333333333333e+001 0.000000000000e+000 8.666666666667e+001 0.000000000000e+000 0.000000000000e+000 0.000000000000e+000 
5.666666666667e+001 0.000000000000e+000 8.333333333333e+001 0.000000000000e+000 0.000000000000e+000 0.000000000000e+000 
6.333333333333e+001 0.000000000000e+000 8.666666666667e+001 0.000000000000e+000 0.000000000000e+000 0.000000000000e+000 
6.666666666667e+001 0.000000000000e+000 8.333333333333e+001 0.000000000000e+000 0.000000000000e+000 0.000000000000e+000 
7.333333333333e+001 0.000000000000e+000 8.666666666667e+001 0.000000000000e+000 0.000000000000e+000 0.000000000000e+000 
7.666666666667e+001 0.000000000000e+000 8.333333333333e+001 0.000000000000e+000 0.000000000000e+000 0.000000000000e+000 
8.333333333333e+001 0.000000000000e+000 8.666666666667e+001 0.000000000000e+000 0.000000000000e+000 0.000000000000e+000 
8.666666666667e+001 0.000000000000e+000 8.333333333333e+001 0.000000000000e+000 0.000000000000e+000 0.000000000000e+000 
9.333333333333e+001 0.000000000000e+000 8.666666666667e+001 0.000000000000e+000 0.000000000000e+000 0.000000000000e+000 
9.666666666667e+001 0.000000000000e+000 8.333333333333e+001 0.000000000000e+000 0.000000000000e+000 0.000000000000e+000 
3.333333333333e+000 0.000000000000e+000 9.666666666667e+001 0.000000000000e+000 0.000000000000e+000 0.000000000000e+000 
6.666666666667e+000 0.000000000000e+000 9.333333333333e+001 0.000000000000e+000 0.000000000000e+000 0.000000000000e+000 
1.333333333333e+001 0.000000000000e+000 9.666666666667e+001 0.000000000000e+000 0.000000000000e+000 0.000000000000e+000 
1.666666666667e+001 0.000000000000e+000 9.333333333333e+001 0.000000000000e+000 0.000000000000e+000 0.000000000000e+000 
2.333333333333e+001 0.000000000000e+000 9.666666666667e+001 0.000000000000e+000 0.000000000000e+000 0.000000000000e+000 
2.666666666667e+001 0.000000000000e+000 9.333333333333e+001 0.000000000000e+000 0.000000000000e+000 0.000000000000e+000 
3.333333333333e+001 0.000000000000e+000 9.666666666667e+001 0.000000000000e+000 0.000000000000e+000 0.000000000000e+000 
3.666666666667e+001 0.000000000000e+000 9.333333333333e+001 0.000000000000e+000 0.000000000000e+000 0.000000000000e+000 
4.333333333333e+001 0.000000000000e+000 9.666666666667e+001 0.000000000000e+000 0.000000000000e+000 0.000000000000e+000 
4.666666666667e+001 0.000000000000e+000 9.333333333333e+001 0.000000000000e+000 0.000000000000e+000 0.000000000000e+000 
5.333333333333e+001 0.000000000000e+000 9.666666666667e+001 0.000000000000e+000 0.000000000000e+000 0.000000000000e+000 
5.666666666667e+001 0.000000000000e+000 9.333333333333e+001 0.000000000000e+000 0.000000000000e+000 0.000000000000e+000 
6.333333333333e+001 0.000000000000e+000 9.666666666667e+001 0.000000000000e+000 0.000000000000e+000 0.000000000000e+000 
6.666666666667e+001 0.000000000000e+000 9.333333333333e+001 0.000000000000e+000 0.000000000000e+000 0.000000000000e+000 
7.333333333333e+001 0.000000000000e+000 9.666666666667e+001 0.000000000000e+000 0.000000000000e+000 0.000000000000e+000 
7.666666666667e+001 0.000000000000e+000 9.333333333333e+001 0.000000000000e+000 0.000000000000e+000 0.000000000000e+000 
8.333333333333e+001 0.000000000000e+000 9.666666666667e+001 0.000000000000e+000 0.000000000000e+000 0.000000000000e+000 
8.666666666667e+001 0.000000000000e+000 9.333333333333e+001 0.000000000000e+000 0.000000000000e+000 0.000000000000e+000 
9.333333333333e+001 0.000000000000e+000 9.666666666667e+001 0.000000000000e+000 0.000000000000e+000 0.000000000000e+000 
9.666666666667e+001 0.000000000000e+000 9.333333333333e+001 0.000000000000e+000 0.000000000000e+000 0.000000000000e+000 
VARIABLES = "X","Y","Z","VX","VY","VZ"
ZONE T="1.000000000000e+007s", I=200, F=POINT, C=BLACK
STRANDID=1, SOLUTIONTIME=1.000000000000e+007
3.333333333333e+000 0.000000000000e+000 6.666666666667e+000 9.459073156899e-009 5.103696735513e-010 0.000000000000e+000 
6.666666666667e+000 0.000000000000e+000 3.333333333333e+000 9.489630326169e-009 4.798125042799e-010 0.000000000000e+000 
1.333333333333e+001 0.000000000000e+000 6.666666666667e+000 8.460239975892e-009 4.798125042799e-010 0.000000000000e+000 
1.666666666667e+001 0.000000000000e+000 3.333333333333e+000 8.530005317076e-009 4.100471630955e-010 0.000000000000e+000 
2.333333333333e+001 0.000000000000e+000 6.666666666667e+000 7.628340791116e-009 4.100471630955e-010 0.000000000000e+000 
2.666666666667e+001 0.000000000000e+000 3.333333333333e+000 7.709910990670e-009 3.284769635414e-010 0.000000000000e+000 
3.333333333333e+001 0.000000000000e+000 6.666666666667e+000 6.976303059554e-009 3.284769635414e-010 0.000000000000e+000 
3.666666666667e+001 0.000000000000e+000 3.333333333333e+000 7.052957063618e-009 2.518229594761e-010 0.000000000000e+000 
4.333333333333e+001 0.000000000000e+000 6.666666666667e+000 6.484167218623e-009 2.518229594761e-010 0.000000000000e+000 
4.666666666667e+001 0.000000000000e+000 3.333333333333e+000 6.549311144883e-009 1.866790332173e-010 0.000000000000e+000 
5.333333333333e+001 0.000000000000e+000 6.666666666667e+000 6.123067095427e-009 1.866790332173e-010 0.000000000000e+000 
5.666666666667e+001 0.000000000000e+000 3.333333333333e+000 6.175953078636e-009 1.337930500084e-010 0.000000000000e+000 
6.333333333333e+001 0.000000000000e+000 6.666666666667e+000 5.865916740595e-009 1.337930500084e-010 0.000000000000e+000 
6.666666666667e+001 0.000000000000e+000 3.333333333333e+000 5.908366978672e-009 9.134281193224e-011 0.000000000000e+000 
7.333333333333e+001 0.000000000000e+000 6.666666666667e+000 5.691025340272e-009 9.134281193224e-011 0.000000000000e+000 
7.666666666667e+001 0.000000000000e+000 3.333333333333e+000 5.725681354652e-009 5.668679755082e-011 0.000000000000e+000 
8.333333333333e+001 0.000000000000e+000 6.666666666667e+000 5.582723627162e-009 5.668679755082e-011 0.000000000000e+000 
8.666666666667e+001 0.000000000000e+000 3.333333333333e+000 5.612307759337e-009 2.710266537602e-011 0.000000000000e+000 
9.333333333333e+001 0.000000000000e+000 6.666666666667e+000 5.530999763032e-009 2.710266537602e-011 0.000000000000e+000 
9.666666666667e+001 0.000000000000e+000 3.333333333333e+000 5.558102428409e-009 0.000000000000e+000 0.000000000000e+000 
3.333333333333e+000 0.000000000000e+000 1.666666666667e+001 9.345495482577e-009 1.592223359180e-009 0.000000000000e+000 
6.666666666667e+000 0.000000000000e+000 1.333333333333e+001 9.459073156899e-009 1.478645684858e-009 0.000000000000e+000 
1.333333333333e+001 0.000000000000e+000 1.666666666667e+001 8.223540638677e-009 1.478645684858e-009 0.000000000000e+000 
1.666666666667e+001 0.000000000000e+000 1.333333333333e+001 8.460239975892e-009 1.241946347643e-009 0.000000000000e+000 
2.333333333333e+001 0.000000000000e+000 1.666666666667e+001 7.366909138664e-009 1.241946347643e-009 0.000000000000e+000 
2.666666666667e+001 0.000000000000e+000 1.333333333333e+001 7.628340791116e-009 9.805146951911e-010 0.000000000000e+000 
3.333333333333e+001 0.000000000000e+000 1.666666666667e+001 6.739747164977e-009 9.805146951911e-010 0.000000000000e+000 
3.666666666667e+001 0.000000000000e+000 1.333333333333e+001 6.976303059554e-009 7.439588006144e-010 0.000000000000e+000 
4.333333333333e+001 0.000000000000e+000 1.666666666667e+001 6.287987574633e-009 7.439588006144e-010 0.000000000000e+000 
4.666666666667e+001 0.000000000000e+000 1.333333333333e+001 6.484167218623e-009 5.477791566241e-010 0.000000000000e+000 
5.333333333333e+001 0.000000000000e+000 1.666666666667e+001 5.966231343666e-009 5.477791566241e-010 0.000000000000e+000 
5.666666666667e+001 0.000000000000e+000 1.333333333333e+001 6.123067095427e-009 3.909434048628e-010 0.000000000000e+000 
6.333333333333e+001 0.000000000000e+000 1.666666666667e+001 5.741207547877e-009 3.909434048628e-010 0.000000000000e+000 
6.666666666667e+001 0.000000000000e+000 1.333333333333e+001 5.865916740595e-009 2.662342121446e-010 0.000000000000e+000 
7.333333333333e+001 0.000000000000e+000 1.666666666667e+001 5.589779638552e-009 2.662342121446e-010 0.000000000000e+000 
7.666666666667e+001 0.000000000000e+000 1.333333333333e+001 5.691025340272e-009 1.649885104254e-010 0.000000000000e+000 
8.333333333333e+001 0.000000000000e+000 1.666666666667e+001 5.496561646093e-009 1.649885104254e-010 0.000000000000e+000 
8.666666666667e+001 0.000000000000e+000 1.333333333333e+001 5.582723627162e-009 7.882652935708e-011 0.000000000000e+000 
9.333333333333e+001 0.000000000000e+000 1.666666666667e+001 5.452173233675e-009 7.882652935708e-011 0.000000000000e+000 
9.666666666667e+001 0.000000000000e+000 1.333333333333e+001 5.530999763032e-009 0.000000000000e+000 0.000000000000e+000 
3.333333333333e+000 0.000000000000e+000 2.666666666667e+001 9.044863617365e-009 2.901232393653e-009 0.000000000000e+000 
6.666666666667e+000 0.000000000000e+000 2.333333333333e+001 9.345495482577e-009 2.600600528441e-009 0.000000000000e+000 
1.333333333333e+001 0.000000000000e+000 2.666666666667e+001 7.721517957804e-009 2.600600528441e-009 0.000000000000e+000 
1.666666666667e+001 0.000000000000e+000 2.333333333333e+001 8.223540638677e-009 2.098577847569e-009 0.000000000000e+000 
2.333333333333e+001 0.000000000000e+000 2.666666666667e+001 6.876007960087e-009 2.098577847569e-009 0.000000000000e+000 