VARIABLES  = "X","Y","Z", "PRESSURE1", "TEMPERATURE1", "CONCENTRATION1", "VELOCITY_X1", "VELOCITY_Y1", "VELOCITY_Z1"
ZONE T="0.000000000000e+000s", N=121, E=200, F=FEPOINT, ET=QUADRILATERAL
STRANDID=1, SOLUTIONTIME=0.000000000000e+000
0.000000000000e+000 0.000000000000e+000 0.000000000000e+000 0.000000000000e+000 0.000000000000e+000 0.000000000000e+000 0.000000000000e+000 0.000000000000e+000 0.000000000000e+000 
1.000000000000e+001 0.000000000000e+000 0.000000000000e+000 0.000000000000e+000 0.000000000000e+000 0.000000000000e+000 0.000000000000e+000 0.000000000000e+000 0.000000000000e+000 
2.000000000000e+001 0.000000000000e+000 0.000000000000e+000 0.000000000000e+000 0.000000000000e+000 0.000000000000e+000 0.000000000000e+000 0.000000000000e+000 0.000000000000e+000 
3.000000000000e+001 0.000000000000e+000 0.000000000000e+000 0.000000000000e+000 0.000000000000e+000 0.000000000000e+000 0.000000000000e+000 0.000000000000e+000 0.000000000000e+000 
4.000000000000e+001 0.000000000000e+000 0.000000000000e+000 0.000000000000e+000 0.000000000000e+000 0.000000000000e+000 0.000000000000e+000 0.000000000000e+000 0.000000000000e+000 
5.000000000000e+001 0.000000000000e+000 0.000000000000e+000 0.000000000000e+000 0.000000000000e+000 0.000000000000e+000 0.000000000000e+000 0.000000000000e+000 0.000000000000e+000 
6.000000000000e+001 0.000000000000e+000 0.000000000000e+000 0.000000000000e+000 0.000000000000e+000 0.000000000000e+000 0.000000000000e+000 0.000000000000e+000 0.000000000000e+000 
7.000000000000e+001 0.000000000000e+000 0.000000000000e+000 0.000000000000e+000 0.000000000000e+000 0.000000000000e+000 0.000000000000e+000 0.000000000000e+000 0.000000000000e+000 
8.000000000000e+001 0.000000000000e+000 0.000000000000e+000 0.000000000000e+000 0.000000000000e+000 0.000000000000e+000 0.000000000000e+000 0.000000000000e+000 0.000000000000e+000 
9.000000000000e+001 0.000000000000e+000 0.000000000000e+000 0.000000000000e+000 0.000000000000e+000 0.000000000000e+000 0.000000000000e+000 0.000000000000e+000 0.000000000000e+000 
1.000000000000e+002 0.000000000000e+000 0.000000000000e+000 0.000000000000e+000 0.000000000000e+000 0.000000000000e+000 0.000000000000e+000 0.000000000000e+000 0.000000000000e+000 
0.000000000000e+000 0.000000000000e+000 1.000000000000e+001 -9.810000000000e+004 0.000000000000e+000 0.000000000000e+000 0.000000000000e+000 0.000000000000e+000 0.000000000000e+000 
1.000000000000e+001 0.000000000000e+000 1.000000000000e+001 -9.810000000000e+004 0.000000000000e+000 0.000000000000e+000 0.000000000000e+000 0.000000000000e+000 0.000000000000e+000 
2.000000000000e+001 0.000000000000e+000 1.000000000000e+001 -9.810000000000e+004 0.000000000000e+000 0.000000000000e+000 0.000000000000e+000 0.000000000000e+000 0.000000000000e+000 
3.000000000000e+001 0.000000000000e+000 1.000000000000e+001 -9.810000000000e+004 0.000000000000e+000 0.000000000000e+000 0.000000000000e+000 0.000000000000e+000 0.000000000000e+000 
4.000000000000e+001 0.000000000000e+000 1.000000000000e+001 -9.810000000000e+004 0.000000000000e+000 0.000000000000e+000 0.000000000000e+000 0.000000000000e+000 0.000000000000e+000 
5.000000000000e+001 0.000000000000e+000 1.000000000000e+001 -9.810000000000e+004 0.000000000000e+000 0.000000000000e+000 0.000000000000e+000 0.000000000000e+000 0.000000000000e+000 
6.000000000000e+001 0.000000000000e+000 1.000000000000e+001 -9.810000000000e+004 0.000000000000e+000 0.000000000000e+000 0.000000000000e+000 0.000000000000e+000 0.000000000000e+000 
7.000000000000e+001 0.000000000000e+000 1.000000000000e+001 -9.810000000000e+004 0.000000000000e+000 0.000000000000e+000 0.000000000000e+000 0.000000000000e+000 0.000000000000e+000 
8.000000000000e+001 0.000000000000e+000 1.000000000000e+001 -9.810000000000e+004 0.000000000000e+000 0.000000000000e+000 0.000000000000e+000 0.000000000000e+000 0.000000000000e+000 
9.000000000000e+001 0.000000000000e+000 1.000000000000e+001 -9.810000000000e+004 0.000000000000e+000 0.000000000000e+000 0.000000000000e+000 0.000000000000e+000 0.000000000000e+000 
1.000000000000e+002 0.000000000000e+000 1.000000000000e+001 -9.810000000000e+004 0.000000000000e+000 0.000000000000e+000 0.000000000000e+000 0.000000000000e+000 0.000000000000e+000 
0.000000000000e+000 0.000000000000e+000 2.000000000000e+001 -1.962000000000e+005 0.000000000000e+000 0.000000000000e+000 0.000000000000e+000 0.000000000000e+000 0.000000000000e+000 
1.000000000000e+001 0.000000000000e+000 2.000000000000e+001 -1.962000000000e+005 0.000000000000e+000 0.000000000000e+000 0.000000000000e+000 0.000000000000e+000 0.000000000000e+000 
2.000000000000e+001 0.000000000000e+000 2.000000000000e+001 -1.962000000000e+005 0.000000000000e+000 0.000000000000e+000 0.000000000000e+000 0.000000000000e+000 0.000000000000e+000 
3.000000000000e+001 0.000000000000e+000 2.000000000000e+001 -1.962000000000e+005 0.000000000000e+000 0.000000000000e+000 0.000000000000e+000 0.000000000000e+000 0.000000000000e+000 
4.000000000000e+001 0.000000000000e+000 2.000000000000e+001 -1.962000000000e+005 0.000000000000e+000 0.000000000000e+000 0.000000000000e+000 0.000000000000e+000 0.000000000000e+000 
5.000000000000e+001 0.000000000000e+000 2.000000000000e+001 -1.962000000000e+005 0.000000000000e+000 0.000000000000e+000 0.000000000000e+000 0.000000000000e+000 0.000000000000e+000 
6.000000000000e+001 0.000000000000e+000 2.000000000000e+001 -1.962000000000e+005 0.000000000000e+000 0.000000000000e+000 0.000000000000e+000 0.000000000000e+000 0.000000000000e+000 
7.000000000000e+001 0.000000000000e+000 2.000000000000e+001 -1.962000000000e+005 0.000000000000e+000 0.000000000000e+000 0.000000000000e+000 0.000000000000e+000 0.000000000000e+000 
8.000000000000e+001 0.000000000000e+000 2.000000000000e+001 -1.962000000000e+005 0.000000000000e+000 0.000000000000e+000 0.000000000000e+000 0.000000000000e+000 0.000000000000e+000 
9.000000000000e+001 0.000000000000e+000 2.000000000000e+001 -1.962000000000e+005 0.000000000000e+000 0.000000000000e+000 0.000000000000e+000 0.000000000000e+000 0.000000000000e+000 
1.000000000000e+002 0.000000000000e+000 2.000000000000e+001 -1.962000000000e+005 0.000000000000e+000 0.000000000000e+000 0.000000000000e+000 0.000000000000e+000 0.000000000000e+000 
0.000000000000e+000 0.000000000000e+000 3.000000000000e+001 -2.943000000000e+005 0.000000000000e+000 0.000000000000e+000 0.000000000000e+000 0.000000000000e+000 0.000000000000e+000 
1.000000000000e+001 0.000000000000e+000 3.000000000000e+001 -2.943000000000e+005 0.000000000000e+000 0.000000000000e+000 0.000000000000e+000 0.000000000000e+000 0.000000000000e+000 
2.000000000000e+001 0.000000000000e+000 3.000000000000e+001 -2.943000000000e+005 0.000000000000e+000 0.000000000000e+000 0.000000000000e+000 0.000000000000e+000 0.000000000000e+000 
3.000000000000e+001 0.000000000000e+000 3.000000000000e+001 -2.943000000000e+005 0.000000000000e+000 0.000000000000e+000 0.000000000000e+000 0.000000000000e+000 0.000000000000e+000 
4.000000000000e+001 0.000000000000e+000 3.000000000000e+001 -2.943000000000e+005 0.000000000000e+000 0.000000000000e+000 0.000000000000e+000 0.000000000000e+000 0.000000000000e+000 
5.000000000000e+001 0.000000000000e+000 3.000000000000e+001 -2.943000000000e+005 0.000000000000e+000 0.000000000000e+000 0.000000000000e+000 0.000000000000e+000 0.000000000000e+000 
6.000000000000e+001 0.000000000000e+000 3.000000000000e+001 -2.943000000000e+005 0.000000000000e+000 0.000000000000e+000 0.000000000000e+000 0.000000000000e+000 0.000000000000e+000 
7.000000000000e+001 0.000000000000e+000 3.000000000000e+001 -2.943000000000e+005 0.000000000000e+000 0.000000000000e+000 0.000000000000e+000 0.000000000000e+000 0.000000000000e+000 
8.000000000000e+001 0.000000000000e+000 3.000000000000e+001 -2.943000000000e+005 0.000000000000e+000 0.000000000000e+000 0.000000000000e+000 0.000000000000e+000 0.000000000000e+000 
9.000000000000e+001 0.000000000000e+000 3.000000000000e+001 -2.943000000000e+005 0.000000000000e+000 0.000000000000e+000 0.000000000000e+000 0.000000000000e+000 0.000000000000e+000 
1.000000000000e+002 0.000000000000e+000 3.000000000000e+001 -2.943000000000e+005 0.000000000000e+000 0.000000000000e+000 0.000000000000e+000 0.000000000000e+000 0.000000000000e+000 
0.000000000000e+000 0.000000000000e+000 4.000000000000e+001 -3.924000000000e+005 0.000000000000e+000 0.000000000000e+000 0.000000000000e+000 0.000000000000e+000 0.000000000000e+000 
1.000000000000e+001 0.000000000000e+000 4.000000000000e+001 -3.924000000000e+005 0.000000000000e+000 0.000000000000e+000 0.000000000000e+000 0.000000000000e+000 0.000000000000e+000 
2.000000000000e+001 0.000000000000e+000 4.000000000000e+001 -3.924000000000e+005 0.000000000000e+000 0.000000000000e+000 0.000000000000e+000 0.000000000000e+000 0.000000000000e+000 
3.000000000000e+001 0.000000000000e+000 4.000000000000e+001 -3.924000000000e+005 0.000000000000e+000 0.000000000000e+000 0.000000000000e+000 0.000000000000e+000 0.000000000000e+000 
4.000000000000e+001 0.000000000000e+000 4.000000000000e+001 -3.924000000000e+005 0.000000000000e+000 0.000000000000e+000 0.000000000000e+000 0.000000000000e+000 0.000000000000e+000 
5.000000000000e+001 0.000000000000e+000 4.000000000000e+001 -3.924000000000e+005 0.000000000000e+000 0.000000000000e+000 0.000000000000e+000 0.000000000000e+000 0.000000000000e+000 
6.000000000000e+001 0.000000000000e+000 4.000000000000e+001 -3.924000000000e+005 0.000000000000e+000 0.000000000000e+000 0.000000000000e+000 0.000000000000e+000 0.000000000000e+000 
7.000000000000e+001 0.000000000000e+000 4.000000000000e+001 -3.924000000000e+005 0.000000000000e+000 0.000000000000e+000 0.000000000000e+000 0.000000000000e+000 0.000000000000e+000 
8.000000000000e+001 0.000000000000e+000 4.000000000000e+001 -3.924000000000e+005 0.000000000000e+000 0.000000000000e+000 0.000000000000e+000 0.000000000000e+000 0.000000000000e+000 
9.000000000000e+001 0.000000000000e+000 4.000000000000e+001 -3.924000000000e+005 0.000000000000e+000 0.000000000000e+000 0.000000000000e+000 0.000000000000e+000 0.000000000000e+000 
1.000000000000e+002 0.000000000000e+000 4.000000000000e+001 -3.924000000000e+005 0.000000000000e+000 0.000000000000e+000 0.000000000000e+000 0.000000000000e+000 0.000000000000e+000 
0.000000000000e+000 0.000000000000e+000 5.000000000000e+001 -4.905000000000e+005 0.000000000000e+000 0.000000000000e+000 0.000000000000e+000 0.000000000000e+000 0.000000000000e+000 
1.000000000000e+001 0.000000000000e+000 5.000000000000e+001 -4.905000000000e+005 0.000000000000e+000 0.000000000000e+000 0.000000000000e+000 0.000000000000e+000 0.000000000000e+000 
2.000000000000e+001 0.000000000000e+000 5.000000000000e+001 -4.905000000000e+005 0.000000000000e+000 0.000000000000e+000 0.000000000000e+000 0.000000000000e+000 0.000000000000e+000 
3.000000000000e+001 0.000000000000e+000 5.000000000000e+001 -4.905000000000e+005 0.000000000000e+000 0.000000000000e+000 0.000000000000e+000 0.000000000000e+000 0.000000000000e+000 
4.000000000000e+001 0.000000000000e+000 5.000000000000e+001 -4.905000000000e+005 0.000000000000e+000 0.000000000000e+000 0.000000000000e+000 0.000000000000e+000 0.000000000000e+000 
5.000000000000e+001 0.000000000000e+000 5.000000000000e+001 -4.905000000000e+005 0.000000000000e+000 0.000000000000e+000 0.000000000000e+000 0.000000000000e+000 0.000000000000e+000 
6.000000000000e+001 0.000000000000e+000 5.000000000000e+001 -4.905000000000e+005 0.000000000000e+000 0.000000000000e+000 0.000000000000e+000 0.000000000000e+000 0.000000000000e+000 
7.000000000000e+001 0.000000000000e+000 5.000000000000e+001 -4.905000000000e+005 0.000000000000e+000 0.000000000000e+000 0.000000000000e+000 0.000000000000e+000 0.000000000000e+000 
8.000000000000e+001 0.000000000000e+000 5.000000000000e+001 -4.905000000000e+005 0.000000000000e+000 0.000000000000e+000 0.000000000000e+000 0.000000000000e+000 0.000000000000e+000 
9.000000000000e+001 0.000000000000e+000 5.000000000000e+001 -4.905000000000e+005 0.000000000000e+000 0.000000000000e+000 0.000000000000e+000 0.000000000000e+000 0.000000000000e+000 
1.000000000000e+002 0.000000000000e+000 5.000000000000e+001 -4.905000000000e+005 0.000000000000e+000 0.000000000000e+000 0.000000000000e+000 0.000000000000e+000 0.000000000000e+000 
0.000000000000e+000 0.000000000000e+000 6.000000000000e+001 -5.886000000000e+005 0.000000000000e+000 0.000000000000e+000 0.000000000000e+000 0.000000000000e+000 0.000000000000e+000 
1.000000000000e+001 0.000000000000e+000 6.000000000000e+001 -5.886000000000e+005 0.000000000000e+000 0.000000000000e+000 0.000000000000e+000 0.000000000000e+000 0.000000000000e+000 
2.000000000000e+001 0.000000000000e+000 6.000000000000e+001 -5.886000000000e+005 0.000000000000e+000 0.000000000000e+000 0.000000000000e+000 0.000000000000e+000 0.000000000000e+000 
3.000000000000e+001 0.000000000000e+000 6.000000000000e+001 -5.886000000000e+005 0.000000000000e+000 0.000000000000e+000 0.000000000000e+000 0.000000000000e+000 0.000000000000e+000 
4.000000000000e+001 0.000000000000e+000 6.000000000000e+001 -5.886000000000e+005 0.000000000000e+000 0.000000000000e+000 0.000000000000e+000 0.000000000000e+000 0.000000000000e+000 
5.000000000000e+001 0.000000000000e+000 6.000000000000e+001 -5.886000000000e+005 0.000000000000e+000 0.000000000000e+000 0.000000000000e+000 0.000000000000e+000 0.000000000000e+000 
6.000000000000e+001 0.000000000000e+000 6.000000000000e+001 -5.886000000000e+005 0.000000000000e+000 0.000000000000e+000 0.000000000000e+000 0.000000000000e+000 0.000000000000e+000 
7.000000000000e+001 0.000000000000e+000 6.000000000000e+001 -5.886000000000e+005 0.000000000000e+000 0.000000000000e+000 0.000000000000e+000 0.000000000000e+000 0.000000000000e+000 
8.000000000000e+001 0.000000000000e+000 6.000000000000e+001 -5.886000000000e+005 0.000000000000e+000 0.000000000000e+000 0.000000000000e+000 0.000000000000e+000 0.000000000000e+000 
9.000000000000e+001 0.000000000000e+000 6.000000000000e+001 -5.886000000000e+005 0.000000000000e+000 0.000000000000e+000 0.000000000000e+000 0.000000000000e+000 0.000000000000e+000 
1.000000000000e+002 0.000000000000e+000 6.000000000000e+001 -5.886000000000e+005 0.000000000000e+000 0.000000000000e+000 0.000000000000e+000 0.000000000000e+000 0.000000000000e+000 
0.000000000000e+000 0.000000000000e+000 7.000000000000e+001 -6.867000000000e+005 0.000000000000e+000 0.000000000000e+000 0.000000000000e+000 0.000000000000e+000 0.000000000000e+000 
1.000000000000e+001 0.000000000000e+000 7.000000000000e+001 -6.867000000000e+005 0.000000000000e+000 0.000000000000e+000 0.000000000000e+000 0.000000000000e+000 0.000000000000e+000 
2.000000000000e+001 0.000000000000e+000 7.000000000000e+001 -6.867000000000e+005 0.000000000000e+000 0.000000000000e+000 0.000000000000e+000 0.000000000000e+000 0.000000000000e+000 
3.000000000000e+001 0.000000000000e+000 7.000000000000e+001 -6.867000000000e+005 0.000000000000e+000 0.000000000000e+000 0.000000000000e+000 0.000000000000e+000 0.000000000000e+000 
4.000000000000e+001 0.000000000000e+000 7.000000000000e+001 -6.867000000000e+005 0.000000000000e+000 0.000000000000e+000 0.000000000000e+000 0.000000000000e+000 0.000000000000e+000 
5.000000000000e+001 0.000000000000e+000 7.000000000000e+001 -6.867000000000e+005 0.000000000000e+000 0.000000000000e+000 0.000000000000e+000 0.000000000000e+000 0.000000000000e+000 
6.000000000000e+001 0.000000000000e+000 7.000000000000e+001 -6.867000000000e+005 0.000000000000e+000 0.000000000000e+000 0.000000000000e+000 0.000000000000e+000 0.000000000000e+000 
7.000000000000e+001 0.000000000000e+000 7.000000000000e+001 -6.867000000000e+005 0.000000000000e+000 0.000000000000e+000 0.000000000000e+000 0.000000000000e+000 0.000000000000e+000 
8.000000000000e+001 0.000000000000e+000 7.000000000000e+001 -6.867000000000e+005 0.000000000000e+000 0.000000000000e+000 0.000000000000e+000 0.000000000000e+000 0.000000000000e+000 
9.000000000000e+001 0.000000000000e+000 7.000000000000e+001 -6.867000000000e+005 0.000000000000e+000 0.000000000000e+000 0.000000000000e+000 0.000000000000e+000 0.000000000000e+000 
1.000000000000e+002 0.000000000000e+000 7.000000000000e+001 -6.867000000000e+005 0.000000000000e+000 0.000000000000e+000 0.000000000000e+000 0.000000000000e+000 0.000000000000e+000 
0.000000000000e+000 0.000000000000e+000 8.000000000000e+001 -7.848000000000e+005 0.000000000000e+000 0.000000000000e+000 0.000000000000e+000 0.000000000000e+000 0.000000000000e+000 
1.000000000000e+001 0.000000000000e+000 8.000000000000e+001 -7.848000000000e+005 0.000000000000e+000 0.000000000000e+000 0.000000000000e+000 0.000000000000e+000 0.000000000000e+000 
2.000000000000e+001 0.000000000000e+000 8.000000000000e+001 -7.848000000000e+005 0.000000000000e+000 0.000000000000e+000 0.000000000000e+000 0.000000000000e+000 0.000000000000e+000 
3.000000000000e+001 0.000000000000e+000 8.000000000000e+001 -7.848000000000e+005 0.000000000000e+000 0.000000000000e+000 0.000000000000e+000 0.000000000000e+000 0.000000000000e+000 
4.000000000000e+001 0.000000000000e+000 8.000000000000e+001 -7.848000000000e+005 0.000000000000e+000 0.000000000000e+000 0.000000000000e+000 0.000000000000e+000 0.000000000000e+000 
5.000000000000e+001 0.000000000000e+000 8.000000000000e+001 -7.848000000000e+005 0.000000000000e+000 0.000000000000e+000 0.000000000000e+000 0.000000000000e+000 0.000000000000e+000 
6.000000000000e+001 0.000000000000e+000 8.000000000000e+001 -7.848000000000e+005 0.000000000000e+000 0.000000000000e+000 0.000000000000e+000 0.000000000000e+000 0.000000000000e+000 
7.000000000000e+001 0.000000000000e+000 8.000000000000e+001 -7.848000000000e+005 0.000000000000e+000 0.000000000000e+000 0.000000000000e+000 0.000000000000e+000 0.000000000000e+000 
8.000000000000e+001 0.000000000000e+000 8.000000000000e+001 -7.848000000000e+005 0.000000000000e+000 0.000000000000e+000 0.000000000000e+000 0.000000000000e+000 0.000000000000e+000 
9.000000000000e+001 0.000000000000e+000 8.000000000000e+001 -7.848000000000e+005 0.000000000000e+000 0.000000000000e+000 0.000000000000e+000 0.000000000000e+000 0.000000000000e+000 
1.000000000000e+002 0.000000000000e+000 8.000000000000e+001 -7.848000000000e+005 0.000000000000e+000 0.000000000000e+000 0.000000000000e+000 0.000000000000e+000 0.000000000000e+000 
0.000000000000e+000 0.000000000000e+000 9.000000000000e+001 -8.829000000000e+005 0.000000000000e+000 0.000000000000e+000 0.000000000000e+000 0.000000000000e+000 0.000000000000e+000 
1.000000000000e+001 0.000000000000e+000 9.000000000000e+001 -8.829000000000e+005 0.000000000000e+000 0.000000000000e+000 0.000000000000e+000 0.000000000000e+000 0.000000000000e+000 
2.000000000000e+001 0.000000000000e+000 9.000000000000e+001 -8.829000000000e+005 0.000000000000e+000 0.000000000000e+000 0.000000000000e+000 0.000000000000e+000 0.000000000000e+000 
3.000000000000e+001 0.000000000000e+000 9.000000000000e+001 -8.829000000000e+005 0.000000000000e+000 0.000000000000e+000 0.000000000000e+000 0.000000000000e+000 0.000000000000e+000 
4.000000000000e+001 0.000000000000e+000 9.000000000000e+001 -8.829000000000e+005 0.000000000000e+000 0.000000000000e+000 0.000000000000e+000 0.000000000000e+000 0.000000000000e+000 
5.000000000000e+001 0.000000000000e+000 9.000000000000e+001 -8.829000000000e+005 0.000000000000e+000 0.000000000000e+000 0.000000000000e+000 0.000000000000e+000 0.000000000000e+000 
6.000000000000e+001 0.000000000000e+000 9.000000000000e+001 -8.829000000000e+005 0.000000000000e+000 0.000000000000e+000 0.000000000000e+000 0.000000000000e+000 0.000000000000e+000 
7.000000000000e+001 0.000000000000e+000 9.000000000000e+001 -8.829000000000e+005 0.000000000000e+000 0.000000000000e+000 0.000000000000e+000 0.000000000000e+000 0.000000000000e+000 
8.000000000000e+001 0.000000000000e+000 9.000000000000e+001 -8.829000000000e+005 0.000000000000e+000 0.000000000000e+000 0.000000000000e+000 0.000000000000e+000 0.000000000000e+000 
9.000000000000e+001 0.000000000000e+000 9.000000000000e+001 -8.829000000000e+005 0.000000000000e+000 0.000000000000e+000 0.000000000000e+000 0.000000000000e+000 0.000000000000e+000 
1.000000000000e+002 0.000000000000e+000 9.000000000000e+001 -8.829000000000e+005 0.000000000000e+000 0.000000000000e+000 0.000000000000e+000 0.000000000000e+000 0.000000000000e+000 
0.000000000000e+000 0.000000000000e+000 1.000000000000e+002 -9.810000000000e+005 0.000000000000e+000 0.000000000000e+000 0.000000000000e+000 0.000000000000e+000 0.000000000000e+000 
1.000000000000e+001 0.000000000000e+000 1.000000000000e+002 -9.810000000000e+005 0.000000000000e+000 0.000000000000e+000 0.000000000000e+000 0.000000000000e+000 0.000000000000e+000 
2.000000000000e+001 0.000000000000e+000 1.000000000000e+002 -9.810000000000e+005 0.000000000000e+000 0.000000000000e+000 0.000000000000e+000 0.000000000000e+000 0.000000000000e+000 
3.000000000000e+001 0.000000000000e+000 1.000000000000e+002 -9.810000000000e+005 0.000000000000e+000 0.000000000000e+000 0.000000000000e+000 0.000000000000e+000 0.000000000000e+000 
4.000000000000e+001 0.000000000000e+000 1.000000000000e+002 -9.810000000000e+005 0.000000000000e+000 0.000000000000e+000 0.000000000000e+000 0.000000000000e+000 0.000000000000e+000 
5.000000000000e+001 0.000000000000e+000 1.000000000000e+002 -9.810000000000e+005 0.000000000000e+000 0.000000000000e+000 0.000000000000e+000 0.000000000000e+000 0.000000000000e+000 
6.000000000000e+001 0.000000000000e+000 1.000000000000e+002 -9.810000000000e+005 0.000000000000e+000 0.000000000000e+000 0.000000000000e+000 0.000000000000e+000 0.000000000000e+000 
7.000000000000e+001 0.000000000000e+000 1.000000000000e+002 -9.810000000000e+005 0.000000000000e+000 0.000000000000e+000 0.000000000000e+000 0.000000000000e+000 0.000000000000e+000 
8.000000000000e+001 0.000000000000e+000 1.000000000000e+002 -9.810000000000e+005 0.000000000000e+000 0.000000000000e+000 0.000000000000e+000 0.000000000000e+000 0.000000000000e+000 
9.000000000000e+001 0.000000000000e+000 1.000000000000e+002 -9.810000000000e+005 0.000000000000e+000 0.000000000000e+000 0.000000000000e+000 0.000000000000e+000 0.000000000000e+000 
1.000000000000e+002 0.000000000000e+000 1.000000000000e+002 -9.810000000000e+005 0.000000000000e+000 0.000000000000e+000 0.000000000000e+000 0.000000000000e+000 0.000000000000e+000 
1  13  12  1
1  2  13  1
2  14  13  2
2  3  14  2
3  15  14  3
3  4  15  3
4  16  15  4
4  5  16  4
5  17  16  5
5  6  17  5
6  18  17  6
6  7  18  6
7  19  18  7
7  8  19  7
8  20  19  8
8  9  20  8
9  21  20  9
9  10  21  9
10  22  21  10
10  11  22  10
12  24  23  12
12  13  24  12
13  25  24  13
13  14  25  13
14  26  25  14
14  15  26  14
15  27  26  15
15  16  27  15
16  28  27  16
16  17  28  16
17  29  28  17
17  18  29  17
18  30  29  18
18  19  30  18
19  31  30  19
19  20  31  19
20  32  31  20
20  21  32  20
21  33  32  21
21  22  33  21
23  35  34  23
23  24  35  23
24  36  35  24
24  25  36  24
25  37  36  25
25  26  37  25
26  38  37  26
26  27  38  26
27  39  38  27
27  28  39  27
28  40  39  28
28  29  40  28
29  41  40  29
29  30  41  29
30  42  41  30
30  31  42  30
31  43  42  31
31  32  43  31
32  44  43  32
32  33  44  32
34  46  45  34
34  35  46  34
35  47  46  35
35  36  47  35
36  48  47  36
36  37  48  36
37  49  48  37
37  38  49  37
38  50  49  38
38  39  50  38
39  51  50  39
39  40  51  39
40  52  51  40
40  41  52  40
41  53  52  41
41  42  53  41
42  54  53  42
42  43  54  42
43  55  54  43
43  44  55  43
45  57  56  45
45  46  57  45
46  58  57  46
46  47  58  46
47  59  58  47
47  48  59  47
48  60  59  48
48  49  60  48
49  61  60  49
49  50  61  49
50  62  61  50
50  51  62  50
51  63  62  51
51  52  63  51
52  64  63  52
52  53  64  52
53  65  64  53
53  54  65  53
54  66  65  54
54  55  66  54
56  68  67  56
56  57  68  56
57  69  68  57
57  58  69  57
58  70  69  58
58  59  70  58
59  71  70  59
59  60  71  59
60  72  71  60
60  61  72  60
61  73  72  61
61  62  73  61
62  74  73  62
62  63  74  62
63  75  74  63
63  64  75  63
64  76  75  64
64  65  76  64
65  77  76  65
65  66  77  65
67  79  78  67
67  68  79  67
68  80  79  68
68  69  80  68
69  81  80  69
69  70  81  69
70  82  81  70
70  71  82  70
71  83  82  71
71  72  83  71
72  84  83  72
72  73  84  72
73  85  84  73
73  74  85  73
74  86  85  74
74  75  86  74
75  87  86  75
75  76  87  75
76  88  87  76
76  77  88  76
78  90  89  78
78  79  90  78
79  91  90  79
79  80  91  79
80  92  91  80
80  81  92  80
81  93  92  81
81  82  93  81
82  94  93  82
82  83  94  82
83  95  94  83
83  84  95  83
84  96  95  84
84  85  96  84
85  97  96  85
85  86  97  85
86  98  97  86
86  87  98  86
87  99  98  87
87  88  99  87
89  101  100  89
89  90  101  89
90  102  101  90
90  91  102  90
91  103  102  91
91  92  103  91
92  104  103  92
92  93  104  92
93  105  104  93
93  94  105  93
94  106  105  94
94  95  106  94
95  107  106  95
95  96  107  95
96  108  107  96
96  97  108  96
97  109  108  97
97  98  109  97
98  110  109  98
98  99  110  98
100  112  111  100
100  101  112  100
101  113  112  101
101  102  113  101
102  114  113  102
102  103  114  102
103  115  114  103
103  104  115  103
104  116  115  104
104  105  116  104
105  117  116  105
105  106  117  105
106  118  117  106
106  107  118  106
107  119  118  107
107  108  119  107
108  120  119  108
108  109  120  108
109  121  120  109
109  110  121  109
VARIABLES  = "X","Y","Z", "PRESSURE1", "TEMPERATURE1", "CONCENTRATION1", "VELOCITY_X1", "VELOCITY_Y1", "VELOCITY_Z1"
ZONE T="1.000000000000e+007s", N=121, E=200, F=FEPOINT, ET=QUADRILATERAL
STRANDID=1, SOLUTIONTIME=1.000000000000e+007
0.000000000000e+000 0.000000000000e+000 0.000000000000e+000 6.701416212833e+002 1.000000000000e+000 1.000000000000e+000 9.474351741999e-009 4.950910894682e-010 0.000000000000e+000 
1.000000000000e+001 0.000000000000e+000 0.000000000000e+000 5.770485311722e+002 -6.170658781875e-002 4.750429131540e-001 8.826625207286e-009 4.565573910555e-010 0.000000000000e+000 
2.000000000000e+001 0.000000000000e+000 0.000000000000e+000 4.933693438483e+002 3.081920260388e-003 1.586179449307e-001 7.956085700945e-009 3.828570969965e-010 0.000000000000e+000 
3.000000000000e+001 0.000000000000e+000 0.000000000000e+000 4.177352660148e+002 -5.545757970359e-004 3.597724289023e-002 7.246390372570e-009 3.029256291793e-010 0.000000000000e+000 
4.000000000000e+001 0.000000000000e+000 0.000000000000e+000 3.485458935114e+002 1.413790723359e-004 5.271403641276e-003 6.695478476616e-009 2.301083176216e-010 0.000000000000e+000 
5.000000000000e+001 0.000000000000e+000 0.000000000000e+000 2.842972777424e+002 -1.837115789741e-005 4.303281570826e-004 6.282777106773e-009 1.690503723170e-010 0.000000000000e+000 
6.000000000000e+001 0.000000000000e+000 0.000000000000e+000 2.237112973920e+002 -3.536524379517e-007 4.092552852442e-006 5.983412266193e-009 1.196429707739e-010 0.000000000000e+000 
7.000000000000e+001 0.000000000000e+000 0.000000000000e+000 1.657503315127e+002 6.945589019168e-007 -3.270182425060e-006 5.775024558077e-009 7.979080724474e-011 0.000000000000e+000 
8.000000000000e+001 0.000000000000e+000 0.000000000000e+000 1.095815080736e+002 -1.650467926033e-007 -3.903761416183e-007 5.640237580694e-009 4.682542022844e-011 0.000000000000e+000 
9.000000000000e+001 0.000000000000e+000 0.000000000000e+000 5.452487741263e+001 2.548221995030e-008 -2.275620070843e-008 5.567136650628e-009 1.806844361862e-011 0.000000000000e+000 
1.000000000000e+002 0.000000000000e+000 0.000000000000e+000 0.000000000000e+000 -4.210951558134e-009 -9.382909551478e-010 5.558102428811e-009 0.000000000000e+000 0.000000000000e+000 
0.000000000000e+000 0.000000000000e+000 1.000000000000e+001 -9.743486509536e+004 1.000000000000e+000 1.000000000000e+000 9.421213932536e-009 1.193746240307e-009 0.000000000000e+000 
1.000000000000e+001 0.000000000000e+000 1.000000000000e+001 -9.752765842023e+004 -2.092290624919e-001 4.765287612152e-001 8.925299539150e-009 9.448720674960e-010 0.000000000000e+000 
2.000000000000e+001 0.000000000000e+000 1.000000000000e+001 -9.761065321090e+004 2.150597025022e-002 1.530717298507e-001 8.012345999487e-009 7.940523709606e-010 0.000000000000e+000 
3.000000000000e+001 0.000000000000e+000 1.000000000000e+001 -9.768548708665e+004 -1.223781960063e-003 2.993399174884e-002 7.276490977402e-009 6.286648808411e-010 0.000000000000e+000 
4.000000000000e+001 0.000000000000e+000 1.000000000000e+001 -9.775392448486e+004 1.105527944041e-004 2.426446017656e-003 6.710314200008e-009 4.779699405417e-010 0.000000000000e+000 
5.000000000000e+001 0.000000000000e+000 1.000000000000e+001 -9.781753403997e+004 -4.821179435176e-005 -3.269438456994e-004 6.288335186591e-009 3.519471243590e-010 0.000000000000e+000 
6.000000000000e+001 0.000000000000e+000 1.000000000000e+001 -9.787760120984e+004 1.356195355724e-005 -1.162853681609e-004 5.982521383302e-009 2.503976927924e-010 0.000000000000e+000 
7.000000000000e+001 0.000000000000e+000 1.000000000000e+001 -9.793514573971e+004 -2.196931807879e-006 -1.401492875270e-005 5.768671796669e-009 1.689892683041e-010 0.000000000000e+000 
8.000000000000e+001 0.000000000000e+000 1.000000000000e+001 -9.799097458832e+004 1.632854081692e-007 -6.926483467737e-007 5.628290156193e-009 1.022533263531e-010 0.000000000000e+000 
9.000000000000e+001 0.000000000000e+000 1.000000000000e+001 -9.804574099921e+004 1.846870849001e-008 2.276436310766e-008 5.548654629221e-009 4.475753124305e-011 0.000000000000e+000 
1.000000000000e+002 0.000000000000e+000 1.000000000000e+001 -9.810000000000e+004 -1.698592702957e-008 1.234488132647e-008 5.540033985193e-009 9.034221809312e-012 0.000000000000e+000 
0.000000000000e+000 0.000000000000e+000 2.000000000000e+001 -1.955504847758e+005 1.000000000000e+000 1.000000000000e+000 9.245284861142e-009 2.364685428725e-009 0.000000000000e+000 
1.000000000000e+001 0.000000000000e+000 2.000000000000e+001 -1.956421639058e+005 -1.981074072024e-001 4.744552888217e-001 8.719777226830e-009 1.974882273705e-009 0.000000000000e+000 