VARIABLES = "X","Y","Z","VX","VY","VZ"
ZONE T="0.000000000000e+000s", I=200, F=POINT, C=BLACK
STRANDID=1, SOLUTIONTIME=0.000000000000e+000
3.333333333333e+000 0.000000000000e+000 6.666666666667e+000 0.000000000000e+000 0.000000000000e+000 0.000000000000e+000 
6.666666666667e+000 0.000000000000e+000 3.333333333333e+000 0.000000000000e+000 0.000000000000e+000 0.000000000000e+000 
1.333333333333e+001 0.000000000000e+000 6.666666666667e+000 0.000000000000e+000 0.000000000000e+000 0.000000000000e+000 
1.666666666667e+001 0.000000000000e+000 3.333333333333e+000 0.000000000000e+000 0.000000000000e+000 0.000000000000e+000 
2.333333333333e+001 0.000000000000e+000 6.666666666667e+000 0.000000000000e+000 0.000000000000e+000 0.000000000000e+000 
2.666666666667e+001 0.000000000000e+000 3.333333333333e+000 0.000000000000e+000 0.000000000000e+000 0.000000000000e+000 
3.333333333333e+001 0.000000000000e+000 6.666666666667e+000 0.000000000000e+000 0.000000000000e+000 0.000000000000e+000 
3.666666666667e+001 0.000000000000e+000 3.333333333333e+000 0.000000000000e+000 0.000000000000e+000 0.000000000000e+000 
4.333333333333e+001 0.000000000000e+000 6.666666666667e+000 0.000000000000e+000 0.000000000000e+000 0.000000000000e+000 
4.666666666667e+001 0.000000000000e+000 3.333333333333e+000 0.000000000000e+000 0.000000000000e+000 0.000000000000e+000 
5.333333333333e+001 0.000000000000e+000 6.666666666667e+000 0.000000000000e+000 0.000000000000e+000 0.000000000000e+000 
5.666666666667e+001 0.000000000000e+000 3.333333333333e+000 0.000000000000e+000 0.000000000000e+000 0.000000000000e+000 
6.333333333333e+001 0.000000000000e+000 6.666666666667e+000 0.000000000000e+000 0.000000000000e+000 0.000000000000e+000 
6.666666666667e+001 0.000000000000e+000 3.333333333333e+000 0.000000000000e+000 0.000000000000e+000 0.000000000000e+000 
7.333333333333e+001 0.000000000000e+000 6.666666666667e+000 0.000000000000e+000 0.000000000000e+000 0.000000000000e+000 
7.666666666667e+001 0.000000000000e+000 3.333333333333e+000 0.000000000000e+000 0.000000000000e+000 0.000000000000e+000 
8.333333333333e+001 0.000000000000e+000 6.666666666667e+000 0.000000000000e+000 0.000000000000e+000 0.000000000000e+000 
8.666666666667e+001 0.000000000000e+000 3.333333333333e+000 0.000000000000e+000 0.000000000000e+000 0.000000000000e+000 
9.333333333333e+001 0.000000000000e+000 6.666666666667e+000 0.000000000000e+000 0.000000000000e+000 0.000000000000e+000 
9.666666666667e+001 0.000000000000e+000 3.333333333333e+000 0.000000000000e+000 0.000000000000e+000 0.000000000000e+000 
3.333333333333e+000 0.000000000000e+000 1.666666666667e+001 0.000000000000e+000 0.000000000000e+000 0.000000000000e+000 
6.666666666667e+000 0.000000000000e+000 1.333333333333e+001 0.000000000000e+000 0.000000000000e+000 0.000000000000e+000 
1.333333333333e+001 0.000000000000e+000 1.666666666667e+001 0.000000000000e+000 0.000000000000e+000 0.000000000000e+000 
1.666666666667e+001 0.000000000000e+000 1.333333333333e+001 0.000000000000e+000 0.000000000000e+000 0.000000000000e+000 
2.333333333333e+001 0.000000000000e+000 1.666666666667e+001 0.000000000000e+000 0.000000000000e+000 0.000000000000e+000 
2.666666666667e+001 0.000000000000e+000 1.333333333333e+001 0.000000000000e+000 0.000000000000e+000 0.000000000000e+000 
3.333333333333e+001 0.000000000000e+000 1.666666666667e+001 0.000000000000e+000 0.000000000000e+000 0.000000000000e+000 
3.666666666667e+001 0.000000000000e+000 1.333333333333e+001 0.000000000000e+000 0.000000000000e+000 0.000000000000e+000 
4.333333333333e+001 0.000000000000e+000 1.666666666667e+001 0.000000000000e+000 0.000000000000e+000 0.000000000000e+000 
4.666666666667e+001 0.000000000000e+000 1.333333333333e+001 0.000000000000e+000 0.000000000000e+000 0.000000000000e+000 
5.333333333333e+001 0.000000000000e+000 1.666666666667e+001 0.000000000000e+000 0.000000000000e+000 0.000000000000e+000 
5.666666666667e+001 0.000000000000e+000 1.333333333333e+001 0.000000000000e+000 0.000000000000e+000 0.000000000000e+000 
6.333333333333e+001 0.000000000000e+000 1.666666666667e+001 0.000000000000e+000 0.000000000000e+000 0.000000000000e+000 
6.666666666667e+001 0.000000000000e+000 1.333333333333e+001 0.000000000000e+000 0.000000000000e+000 0.000000000000e+000 
7.333333333333e+001 0.000000000000e+000 1.666666666667e+001 0.000000000000e+000 0.000000000000e+000 0.000000000000e+000 
7.666666666667e+001 0.000000000000e+000 1.333333333333e+001 0.000000000000e+000 0.000000000000e+000 0.000000000000e+000 
8.333333333333e+001 0.000000000000e+000 1.666666666667e+001 0.000000000000e+000 0.000000000000e+000 0.000000000000e+000 
8.666666666667e+001 0.000000000000e+000 1.333333333333e+001 0.000000000000e+000 0.000000000000e+000 0.000000000000e+000 
9.333333333333e+001 0.000000000000e+000 1.666666666667e+001 0.000000000000e+000 0.000000000000e+000 0.000000000000e+000 
9.666666666667e+001 0.000000000000e+000 1.333333333333e+001 0.000000000000e+000 0.000000000000e+000 0.000000000000e+000 
3.333333333333e+000 0.000000000000e+000 2.666666666667e+001 0.000000000000e+000 0.000000000000e+000 0.000000000000e+000 
6.666666666667e+000 0.000000000000e+000 2.333333333333e+001 0.000000000000e+000 0.000000000000e+000 0.000000000000e+000 
1.333333333333e+001 0.000000000000e+000 2.666666666667e+001 0.000000000000e+000 0.000000000000e+000 0.000000000000e+000 
1.666666666667e+001 0.000000000000e+000 2.333333333333e+001 0.000000000000e+000 0.000000000000e+000 0.000000000000e+000 
2.333333333333e+001 0.000000000000e+000 2.666666666667e+001 0.000000000000e+000 0.000000000000e+000 0.000000000000e+000 
2.666666666667e+001 0.000000000000e+000 2.333333333333e+001 0.000000000000e+000 0.000000000000e+000 0.000000000000e+000 
3.333333333333e+001 0.000000000000e+000 2.666666666667e+001 0.000000000000e+000 0.000000000000e+000 0.000000000000e+000 
3.666666666667e+001 0.000000000000e+000 2.333333333333e+001 0.000000000000e+000 0.000000000000e+000 0.000000000000e+000 
4.333333333333e+001 0.000000000000e+000 2.666666666667e+001 0.000000000000e+000 0.000000000000e+000 0.000000000000e+000 
4.666666666667e+001 0.000000000000e+000 2.333333333333e+001 0.000000000000e+000 0.000000000000e+000 0.000000000000e+000 
5.333333333333e+001 0.000000000000e+000 2.666666666667e+001 0.000000000000e+000 0.000000000000e+000 0.000000000000e+000 
5.666666666667e+001 0.000000000000e+000 2.333333333333e+001 0.000000000000e+000 0.000000000000e+000 0.000000000000e+000 
6.333333333333e+001 0.000000000000e+000 2.666666666667e+001 0.000000000000e+000 0.000000000000e+000 0.000000000000e+000 
6.666666666667e+001 0.000000000000e+000 2.333333333333e+001 0.000000000000e+000 0.000000000000e+000 0.000000000000e+000 
7.333333333333e+001 0.000000000000e+000 2.666666666667e+001 0.000000000000e+000 0.000000000000e+000 0.000000000000e+000 
7.666666666667e+001 0.000000000000e+000 2.333333333333e+001 0.000000000000e+000 0.000000000000e+000 0.000000000000e+000 
8.333333333333e+001 0.000000000000e+000 2.666666666667e+001 0.000000000000e+000 0.000000000000e+000 0.000000000000e+000 
8.666666666667e+001 0.000000000000e+000 2.333333333333e+001 0.000000000000e+000 0.000000000000e+000 0.000000000000e+000 
9.333333333333e+001 0.000000000000e+000 2.666666666667e+001 0.000000000000e+000 0.000000000000e+000 0.000000000000e+000 
9.666666666667e+001 0.000000000000e+000 2.333333333333e+001 0.000000000000e+000 0.000000000000e+000 0.000000000000e+000 
3.333333333333e+000 0.000000000000e+000 3.666666666667e+001 0.000000000000e+000 0.000000000000e+000 0.000000000000e+000 
6.666666666667e+000 0.000000000000e+000 3.333333333333e+001 0.000000000000e+000 0.000000000000e+000 0.000000000000e+000 
1.333333333333e+001 0.000000000000e+000 3.666666666667e+001 0.000000000000e+000 0.000000000000e+000 0.000000000000e+000 
1.666666666667e+001 0.000000000000e+000 3.333333333333e+001 0.000000000000e+000 0.000000000000e+000 0.000000000000e+000 
2.333333333333e+001 0.000000000000e+000 3.666666666667e+001 0.000000000000e+000 0.000000000000e+000 0.000000000000e+000 
2.666666666667e+001 0.000000000000e+000 3.333333333333e+001 0.000000000000e+000 0.000000000000e+000 0.000000000000e+000 
3.333333333333e+001 0.000000000000e+000 3.666666666667e+001 0.000000000000e+000 0.000000000000e+000 0.000000000000e+000 
3.666666666667e+001 0.000000000000e+000 3.333333333333e+001 0.000000000000e+000 0.000000000000e+000 0.000000000000e+000 
4.333333333333e+001 0.000000000000e+000 3.666666666667e+001 0.000000000000e+000 0.000000000000e+000 0.000000000000e+000 
4.666666666667e+001 0.000000000000e+000 3.333333333333e+001 0.000000000000e+000 0.000000000000e+000 0.000000000000e+000 
5.333333333333e+001 0.000000000000e+000 3.666666666667e+001 0.000000000000e+000 0.000000000000e+000 0.000000000000e+000 
5.666666666667e+001 0.000000000000e+000 3.333333333333e+001 0.000000000000e+000 0.000000000000e+000 0.000000000000e+000 
6.333333333333e+001 0.000000000000e+000 3.666666666667e+001 0.000000000000e+000 0.000000000000e+000 0.000000000000e+000 
6.666666666667e+001 0.000000000000e+000 3.333333333333e+001 0.000000000000e+000 0.000000000000e+000 0.000000000000e+000 
7.333333333333e+001 0.000000000000e+000 3.666666666667e+001 0.000000000000e+000 0.000000000000e+000 0.000000000000e+000 
7.666666666667e+001 0.000000000000e+000 3.333333333333e+001 0.000000000000e+000 0.000000000000e+000 0.000000000000e+000 
8.333333333333e+001 0.000000000000e+000 3.666666666667e+001 0.000000000000e+000 0.000000000000e+000 0.000000000000e+000 
8.666666666667e+001 0.000000000000e+000 3.333333333333e+001 0.000000000000e+000 0.000000000000e+000 0.000000000000e+000 
9.333333333333e+001 0.000000000000e+000 3.666666666667e+001 0.000000000000e+000 0.000000000000e+000 0.000000000000e+000 
9.666666666667e+001 0.000000000000e+000 3.333333333333e+001 0.000000000000e+000 0.000000000000e+000 0.000000000000e+000 
3.333333333333e+000 0.000000000000e+000 4.666666666667e+001 0.000000000000e+000 0.000000000000e+000 0.000000000000e+000 
6.666666666667e+000 0.000000000000e+000 4.333333333333e+001 0.000000000000e+000 0.000000000000e+000 0.000000000000e+000 
1.333333333333e+001 0.000000000000e+000 4.666666666667e+001 0.000000000000e+000 0.000000000000e+000 0.000000000000e+000 
1.666666666667e+001 0.000000000000e+000 4.333333333333e+001 0.000000000000e+000 0.000000000000e+000 0.000000000000e+000 
2.333333333333e+001 0.000000000000e+000 4.666666666667e+001 0.000000000000e+000 0.000000000000e+000 0.000000000000e+000 
2.666666666667e+001 0.000000000000e+000 4.333333333333e+001 0.000000000000e+000 0.000000000000e+000 0.000000000000e+000 
3.333333333333e+001 0.000000000000e+000 4.666666666667e+001 0.000000000000e+000 0.000000000000e+000 0.000000000000e+000 
3.666666666667e+001 0.000000000000e+000 4.333333333333e+001 0.000000000000e+000 0.000000000000e+000 0.000000000000e+000 
4.333333333333e+001 0.000000000000e+000 4.666666666667e+001 0.000000000000e+000 0.000000000000e+000 0.000000000000e+000 
4.666666666667e+001 0.000000000000e+000 4.333333333333e+001 0.000000000000e+000 0.000000000000e+000 0.000000000000e+000 
5.333333333333e+001 0.000000000000e+000 4.666666666667e+001 0.000000000000e+000 0.000000000000e+000 0.000000000000e+000 
5.666666666667e+001 0.000000000000e+000 4.333333333333e+001 0.000000000000e+000 0.000000000000e+000 0.000000000000e+000 
6.333333333333e+001 0.000000000000e+000 4.666666666667e+001 0.000000000000e+000 0.000000000000e+000 0.000000000000e+000 
6.666666666667e+001 0.000000000000e+000 4.333333333333e+001 0.000000000000e+000 0.000000000000e+000 0.000000000000e+000 
7.333333333333e+001 0.000000000000e+000 4.666666666667e+001 0.000000000000e+000 0.000000000000e+000 0.000000000000e+000 
7.666666666667e+001 0.000000000000e+000 4.333333333333e+001 0.000000000000e+000 0.000000000000e+000 0.000000000000e+000 
8.333333333333e+001 0.000000000000e+000 4.666666666667e+001 0.000000000000e+000 0.000000000000e+000 0.000000000000e+000 
8.666666666667e+001 0.000000000000e+000 4.333333333333e+001 0.000000000000e+000 0.000000000000e+000 0.000000000000e+000 
9.333333333333e+001 0.000000000000e+000 4.666666666667e+001 0.000000000000e+000 0.000000000000e+000 0.000000000000e+000 
9.666666666667e+001 0.000000000000e+000 4.333333333333e+001 0.000000000000e+000 0.000000000000e+000 0.000000000000e+000 
3.333333333333e+000 0.000000000000e+000 5.666666666667e+001 0.000000000000e+000 0.000000000000e+000 0.000000000000e+000 
6.666666666667e+000 0.000000000000e+000 5.333333333333e+001 0.000000000000e+000 0.000000000000e+000 0.000000000000e+000 
1.333333333333e+001 0.000000000000e+000 5.666666666667e+001 0.000000000000e+000 0.000000000000e+000 0.000000000000e+000 
1.666666666667e+001 0.000000000000e+000 5.333333333333e+001 0.000000000000e+000 0.000000000000e+000 0.000000000000e+000 
2.333333333333e+001 0.000000000000e+000 5.666666666667e+001 0.000000000000e+000 0.000000000000e+000 0.000000000000e+000 
2.666666666667e+001 0.000000000000e+000 5.333333333333e+001 0.000000000000e+000 0.000000000000e+000 0.000000000000e+000 
3.333333333333e+001 0.000000000000e+000 5.666666666667e+001 0.000000000000e+000 0.000000000000e+000 0.000000000000e+000 
3.666666666667e+001 0.000000000000e+000 5.333333333333e+001 0.000000000000e+000 0.000000000000e+000 0.000000000000e+000 
4.333333333333e+001 0.000000000000e+000 5.666666666667e+001 0.000000000000e+000 0.000000000000e+000 0.000000000000e+000 
4.666666666667e+001 0.000000000000e+000 5.333333333333e+001 0.000000000000e+000 0.000000000000e+000 0.000000000000e+000 
5.333333333333e+001 0.000000000000e+000 5.666666666667e+001 0.000000000000e+000 0.000000000000e+000 0.000000000000e+000 
5.666666666667e+001 0.000000000000e+000 5.333333333333e+001 0.000000000000e+000 0.000000000000e+000 0.000000000000e+000 
6.333333333333e+001 0.000000000000e+000 5.666666666667e+001 0.000000000000e+000 0.000000000000e+000 0.000000000000e+000 
6.666666666667e+001 0.000000000000e+000 5.333333333333e+001 0.000000000000e+000 0.000000000000e+000 0.000000000000e+000 
7.333333333333e+001 0.000000000000e+000 5.666666666667e+001 0.000000000000e+000 0.000000000000e+000 0.000000000000e+000 
7.666666666667e+001 0.000000000000e+000 5.333333333333e+001 0.000000000000e+000 0.000000000000e+000 0.000000000000e+000 
8.333333333333e+001 0.000000000000e+000 5.666666666667e+001 0.000000000000e+000 0.000000000000e+000 0.000000000000e+000 
8.666666666667e+001 0.000000000000e+000 5.333333333333e+001 0.000000000000e+000 0.000000000000e+000 0.000000000000e+000 
9.333333333333e+001 0.000000000000e+000 5.666666666667e+001 0.000000000000e+000 0.000000000000e+000 0.000000000000e+000 
9.666666666667e+001 0.000000000000e+000 5.333333333333e+001 0.000000000000e+000 0.000000000000e+000 0.000000000000e+000 
3.333333333333e+000 0.000000000000e+000 6.666666666667e+001 0.000000000000e+000 0.000000000000e+000 0.000000000000e+000 
6.666666666667e+000 0.000000000000e+000 6.333333333333e+001 0.000000000000e+000 0.000000000000e+000 0.000000000000e+000 
1.333333333333e+001 0.000000000000e+000 6.666666666667e+001 0.000000000000e+000 0.000000000000e+000 0.000000000000e+000 
1.666666666667e+001 0.000000000000e+000 6.333333333333e+001 0.000000000000e+000 0.000000000000e+000 0.000000000000e+000 
2.333333333333e+001 0.000000000000e+000 6.666666666667e+001 0.000000000000e+000 0.000000000000e+000 0.000000000000e+000 
2.666666666667e+001 0.000000000000e+000 6.333333333333e+001 0.000000000000e+000 0.000000000000e+000 0.000000000000e+000 
3.333333333333e+001 0.000000000000e+000 6.666666666667e+001 0.000000000000e+000 0.000000000000e+000 0.000000000000e+000 
3.666666666667e+001 0.000000000000e+000 6.333333333333e+001 0.000000000000e+000 0.000000000000e+000 0.000000000000e+000 
4.333333333333e+001 0.000000000000e+000 6.666666666667e+001 0.000000000000e+000 0.000000000000e+000 0.000000000000e+000 
4.666666666667e+001 0.000000000000e+000 6.333333333333e+001 0.000000000000e+000 0.000000000000e+000 0.000000000000e+000 
5.333333333333e+001 0.000000000000e+000 6.666666666667e+001 0.000000000000e+000 0.000000000000e+000 0.000000000000e+000 
5.666666666667e+001 0.000000000000e+000 6.333333333333e+001 0.000000000000e+000 0.000000000000e+000 0.000000000000e+000 
6.333333333333e+001 0.000000000000e+000 6.666666666667e+001 0.000000000000e+000 0.000000000000e+000 0.000000000000e+000 
6.666666666667e+001 0.000000000000e+000 6.333333333333e+001 0.000000000000e+000 0.000000000000e+000 0.000000000000e+000 
7.333333333333e+001 0.000000000000e+000 6.666666666667e+001 0.000000000000e+000 0.000000000000e+000 0.000000000000e+000 
7.666666666667e+001 0.000000000000e+000 6.333333333333e+001 0.000000000000e+000 0.000000000000e+000 0.000000000000e+000 
8.333333333333e+001 0.000000000000e+000 6.666666666667e+001 0.000000000000e+000 0.000000000000e+000 0.000000000000e+000 
8.666666666667e+001 0.000000000000e+000 6.333333333333e+001 0.000000000000e+000 0.000000000000e+000 0.000000000000e+000 
9.333333333333e+001 0.000000000000e+000 6.666666666667e+001 0.000000000000e+000 0.000000000000e+000 0.000000000000e+000 
9.666666666667e+001 0.000000000000e+000 6.333333333333e+001 0.000000000000e+000 0.000000000000e+000 0.000000000000e+000 
3.333333333333e+000 0.000000000000e+000 7.666666666667e+001 0.000000000000e+000 0.000000000000e+000 0.000000000000e+000 
6.666666666667e+000 0.000000000000e+000 7.333333333333e+001 0.000000000000e+000 0.000000000000e+000 0.000000000000e+000 
1.333333333333e+001 0.000000000000e+000 7.666666666667e+001 0.000000000000e+000 0.000000000000e+000 0.000000000000e+000 
1.666666666667e+001 0.000000000000e+000 7.333333333333e+001 0.000000000000e+000 0.000000000000e+000 0.000000000000e+000 
2.333333333333e+001 0.000000000000e+000 7.666666666667e+001 0.000000000000e+000 0.000000000000e+000 0.000000000000e+000 
2.666666666667e+001 0.000000000000e+000 7.333333333333e+001 0.000000000000e+000 0.000000000000e+000 0.000000000000e+000 
3.333333333333e+001 0.000000000000e+000 7.666666666667e+001 0.000000000000e+000 0.000000000000e+000 0.000000000000e+000 
3.666666666667e+001 0.000000000000e+000 7.333333333333e+001 0.000000000000e+000 0.000000000000e+000 0.000000000000e+000 
4.333333333333e+001 0.000000000000e+000 7.666666666667e+001 0.000000000000e+000 0.000000000000e+000 0.000000000000e+000 
4.666666666667e+001 0.000000000000e+000 7.333333333333e+001 0.000000000000e+000 0.000000000000e+000 0.000000000000e+000 
5.333333333333e+001 0.000000000000e+000 7.666666666667e+001 0.000000000000e+000 0.000000000000e+000 0.000000000000e+000 
5.666666666667e+001 0.000000000000e+000 7.333333333333e+001 0.000000000000e+000 0.000000000000e+000 0.000000000000e+000 
6.333333333333e+001 0.000000000000e+000 7.666666666667e+001 0.000000000000e+000 0.000000000000e+000 0.000000000000e+000 
6.666666666667e+001 0.000000000000e+000 7.333333333333e+001 0.000000000000e+000 0.000000000000e+000 0.000000000000e+000 
7.333333333333e+001 0.000000000000e+000 7.666666666667e+001 0.000000000000e+000 0.000000000000e+000 0.000000000000e+000 
7.666666666667e+001 0.000000000000e+000 7.333333333333e+001 0.000000000000e+000 0.000000000000e+000 0.000000000000e+000 
8.333333333333e+001 0.000000000000e+000 7.666666666667e+001 0.000000000000e+000 0.000000000000e+000 0.000000000000e+000 
8.666666666667e+001 0.000000000000e+000 7.333333333333e+001 0.000000000000e+000 0.000000000000e+000 0.000000000000e+000 
9.333333333333e+001 0.000000000000e+000 7.666666666667e+001 0.000000000000e+000 0.000000000000e+000 0.000000000000e+000 
9.666666666667e+001 0.000000000000e+000 7.333333333333e+001 0.000000000000e+000 0.000000000000e+000 0.000000000000e+000 
3.333333333333e+000 0.000000000000e+000 8.666666666667e+001 0.000000000000e+000 0.000000000000e+000 0.000000000000e+000 
6.666666666667e+000 0.000000000000e+000 8.333333333333e+001 0.000000000000e+000 0.000000000000e+000 0.000000000000e+000 
1.333333333333e+001 0.000000000000e+000 8.666666666667e+001 0.000000000000e+000 0.000000000000e+000 0.000000000000e+000 
1.666666666667e+001 0.000000000000e+000 8.333333333333e+001 0.000000000000e+000 0.000000000000e+000 0.000000000000e+000 
2.333333333333e+001 0.000000000000e+000 8.666666666667e+001 0.000000000000e+000 0.000000000000e+000 0.000000000000e+000 
2.666666666667e+001 0.000000000000e+000 8.333333333333e+001 0.000000000000e+000 0.000000000000e+000 0.000000000000e+000 
3.333333333333e+001 0.000000000000e+000 8.666666666667e+001 0.000000000000e+000 0.000000000000e+000 0.000000000000e+000 
3.666666666667e+001 0.000000000000e+000 8.333333333333e+001 0.000000000000e+000 0.000000000000e+000 0.000000000000e+000 
4.333333333333e+001 0.000000000000e+000 8.666666666667e+001 0.000000000000e+000 0.000000000000e+000 0.000000000000e+000 
4.666666666667e+001 0.000000000000e+000 8.333333333333e+001 0.000000000000e+000 0.000000000000e+000 0.000000000000e+000 
5.333333333333e+001 0.000000000000e+000 8.666666666667e+001 0.000000000000e+000 0.000000000000e+000 0.000000000000e+000 
5.666666666667e+001 0.000000000000e+000 8.333333333333e+001 0.000000000000e+000 0.000000000000e+000 0.000000000000e+000 
6.333333333333e+001 0.000000000000e+000 8.666666666667e+001 0.000000000000e+000 0.000000000000e+000 0.000000000000e+000 
6.666666666667e+001 0.000000000000e+000 8.333333333333e+001 0.000000000000e+000 0.000000000000e+000 0.000000000000e+000 
7.333333333333e+001 0.000000000000e+000 8.666666666667e+001 0.000000000000e+000 0.000000000000e+000 0.000000000000e+000 
7.666666666667e+001 0.000000000000e+000 8.333333333333e+001 0.000000000000e+000 0.000000000000e+000 0.000000000000e+000 
8.333333333333e+001 0.000000000000e+000 8.666666666667e+001 0.000000000000e+000 0.000000000000e+000 0.000000000000e+000 
8.666666666667e+001 0.000000000000e+000 8.333333333333e+001 0.000000000000e+000 0.000000000000e+000 0.000000000000e+000 
9.333333333333e+001 0.000000000000e+000 8.666666666667e+001 0.000000000000e+000 0.000000000000e+000 0.000000000000e+000 
9.666666666667e+001 0.000000000000e+000 8.333333333333e+001 0.000000000000e+000 0.000000000000e+000 0.000000000000e+000 
3.333333333333e+000 0.000000000000e+000 9.666666666667e+001 0.000000000000e+000 0.000000000000e+000 0.000000000000e+000 
6.666666666667e+000 0.000000000000e+000 9.333333333333e+001 0.000000000000e+000 0.000000000000e+000 0.000000000000e+000 
1.333333333333e+001 0.000000000000e+000 9.666666666667e+001 0.000000000000e+000 0.000000000000e+000 0.000000000000e+000 
1.666666666667e+001 0.000000000000e+000 9.333333333333e+001 0.000000000000e+000 0.000000000000e+000 0.000000000000e+000 
2.333333333333e+001 0.000000000000e+000 9.666666666667e+001 0.000000000000e+000 0.000000000000e+000 0.000000000000e+000 
2.666666666667e+001 0.000000000000e+000 9.333333333333e+001 0.000000000000e+000 0.000000000000e+000 0.000000000000e+000 
3.333333333333e+001 0.000000000000e+000 9.666666666667e+001 0.000000000000e+000 0.000000000000e+000 0.000000000000e+000 
3.666666666667e+001 0.000000000000e+000 9.333333333333e+001 0.000000000000e+000 0.000000000000e+000 0.000000000000e+000 
4.333333333333e+001 0.000000000000e+000 9.666666666667e+001 0.000000000000e+000 0.000000000000e+000 0.000000000000e+000 
4.666666666667e+001 0.000000000000e+000 9.333333333333e+001 0.000000000000e+000 0.000000000000e+000 0.000000000000e+000 
5.333333333333e+001 0.000000000000e+000 9.666666666667e+001 0.000000000000e+000 0.000000000000e+000 0.000000000000e+000 
5.666666666667e+001 0.000000000000e+000 9.333333333333e+001 0.000000000000e+000 0.000000000000e+000 0.000000000000e+000 
6.333333333333e+001 0.000000000000e+000 9.666666666667e+001 0.000000000000e+000 0.000000000000e+000 0.000000000000e+000 
6.666666666667e+001 0.000000000000e+000 9.333333333333e+001 0.000000000000e+000 0.000000000000e+000 0.000000000000e+000 
7.333333333333e+001 0.000000000000e+000 9.666666666667e+001 0.000000000000e+000 0.000000000000e+000 0.000000000000e+000 
7.666666666667e+001 0.000000000000e+000 9.333333333333e+001 0.000000000000e+000 0.000000000000e+000 0.000000000000e+000 
8.333333333333e+001 0.000000000000e+000 9.666666666667e+001 0.000000000000e+000 0.000000000000e+000 0.000000000000e+000 
8.666666666667e+001 0.000000000000e+000 9.333333333333e+001 0.000000000000e+000 0.000000000000e+000 0.000000000000e+000 
9.333333333333e+001 0.000000000000e+000 9.666666666667e+001 0.000000000000e+000 0.000000000000e+000 0.000000000000e+000 
9.666666666667e+001 0.000000000000e+000 9.333333333333e+001 0.000000000000e+000 0.000000000000e+000 0.000000000000e+000 
VARIABLES = "X","Y","Z","VX","VY","VZ"
ZONE T="1.000000000000e+007s", I=200, F=POINT, C=BLACK
STRANDID=1, SOLUTIONTIME=1.000000000000e+007
3.333333333333e+000 0.000000000000e+000 6.666666666667e+000 9.459073157344e-009 5.103696741243e-010 0.000000000000e+000 
6.666666666667e+000 0.000000000000e+000 3.333333333333e+000 9.489630326655e-009 4.798125048121e-010 0.000000000000e+000 
1.333333333333e+001 0.000000000000e+000 6.666666666667e+000 8.460239976965e-009 4.798125048121e-010 0.000000000000e+000 
1.666666666667e+001 0.000000000000e+000 3.333333333333e+000 8.530005318236e-009 4.100471635424e-010 0.000000000000e+000 
2.333333333333e+001 0.000000000000e+000 6.666666666667e+000 7.628340792481e-009 4.100471635424e-010 0.000000000000e+000 
2.666666666667e+001 0.000000000000e+000 3.333333333333e+000 7.709910992118e-009 3.284769639048e-010 0.000000000000e+000 
3.333333333333e+001 0.000000000000e+000 6.666666666667e+000 6.976303060709e-009 3.284769639048e-010 0.000000000000e+000 
3.666666666667e+001 0.000000000000e+000 3.333333333333e+000 7.052957064884e-009 2.518229597283e-010 0.000000000000e+000 
4.333333333333e+001 0.000000000000e+000 6.666666666667e+000 6.484167219322e-009 2.518229597283e-010 0.000000000000e+000 
4.666666666667e+001 0.000000000000e+000 3.333333333333e+000 6.549311145642e-009 1.866790334082e-010 0.000000000000e+000 
5.333333333333e+001 0.000000000000e+000 6.666666666667e+000 6.123067095702e-009 1.866790334082e-010 0.000000000000e+000 
5.666666666667e+001 0.000000000000e+000 3.333333333333e+000 6.175953078976e-009 1.337930501345e-010 0.000000000000e+000 
6.333333333333e+001 0.000000000000e+000 6.666666666667e+000 5.865916740760e-009 1.337930501345e-010 0.000000000000e+000 
6.666666666667e+001 0.000000000000e+000 3.333333333333e+000 5.908366978842e-009 9.134281205276e-011 0.000000000000e+000 
7.333333333333e+001 0.000000000000e+000 6.666666666667e+000 5.691025340483e-009 9.134281205276e-011 0.000000000000e+000 
7.666666666667e+001 0.000000000000e+000 3.333333333333e+000 5.725681354907e-009 5.668679762869e-011 0.000000000000e+000 
8.333333333333e+001 0.000000000000e+000 6.666666666667e+000 5.582723627486e-009 5.668679762869e-011 0.000000000000e+000 
8.666666666667e+001 0.000000000000e+000 3.333333333333e+000 5.612307759689e-009 2.710266542794e-011 0.000000000000e+000 
9.333333333333e+001 0.000000000000e+000 6.666666666667e+000 5.530999763384e-009 2.710266542794e-011 0.000000000000e+000 
9.666666666667e+001 0.000000000000e+000 3.333333333333e+000 5.558102428811e-009 0.000000000000e+000 0.000000000000e+000 
3.333333333333e+000 0.000000000000e+000 1.666666666667e+001 9.345495482922e-009 1.592223360610e-009 0.000000000000e+000 
6.666666666667e+000 0.000000000000e+000 1.333333333333e+001 9.459073157344e-009 1.478645686188e-009 0.000000000000e+000 
1.333333333333e+001 0.000000000000e+000 1.666666666667e+001 8.223540639630e-009 1.478645686188e-009 0.000000000000e+000 
1.666666666667e+001 0.000000000000e+000 1.333333333333e+001 8.460239976965e-009 1.241946348852e-009 0.000000000000e+000 
2.333333333333e+001 0.000000000000e+000 1.666666666667e+001 7.366909139791e-009 1.241946348852e-009 0.000000000000e+000 
2.666666666667e+001 0.000000000000e+000 1.333333333333e+001 7.628340792481e-009 9.805146961627e-010 0.000000000000e+000 
3.333333333333e+001 0.000000000000e+000 1.666666666667e+001 6.739747165915e-009 9.805146961627e-010 0.000000000000e+000 
3.666666666667e+001 0.000000000000e+000 1.333333333333e+001 6.976303060709e-009 7.439588013691e-010 0.000000000000e+000 
4.333333333333e+001 0.000000000000e+000 1.666666666667e+001 6.287987575104e-009 7.439588013691e-010 0.000000000000e+000 
4.666666666667e+001 0.000000000000e+000 1.333333333333e+001 6.484167219322e-009 5.477791571507e-010 0.000000000000e+000 
5.333333333333e+001 0.000000000000e+000 1.666666666667e+001 5.966231343859e-009 5.477791571507e-010 0.000000000000e+000 
5.666666666667e+001 0.000000000000e+000 1.333333333333e+001 6.123067095702e-009 3.909434053078e-010 0.000000000000e+000 
6.333333333333e+001 0.000000000000e+000 1.666666666667e+001 5.741207547914e-009 3.909434053078e-010 0.000000000000e+000 
6.666666666667e+001 0.000000000000e+000 1.333333333333e+001 5.865916740760e-009 2.662342124617e-010 0.000000000000e+000 
7.333333333333e+001 0.000000000000e+000 1.666666666667e+001 5.589779638682e-009 2.662342124617e-010 0.000000000000e+000 
7.666666666667e+001 0.000000000000e+000 1.333333333333e+001 5.691025340483e-009 1.649885106609e-010 0.000000000000e+000 
8.333333333333e+001 0.000000000000e+000 1.666666666667e+001 5.496561646312e-009 1.649885106609e-010 0.000000000000e+000 
8.666666666667e+001 0.000000000000e+000 1.333333333333e+001 5.582723627486e-009 7.882652948688e-011 0.000000000000e+000 
9.333333333333e+001 0.000000000000e+000 1.666666666667e+001 5.452173233898e-009 7.882652948688e-011 0.000000000000e+000 
9.666666666667e+001 0.000000000000e+000 1.333333333333e+001 5.530999763384e-009 0.000000000000e+000 0.000000000000e+000 
3.333333333333e+000 0.000000000000e+000 2.666666666667e+001 9.044863617584e-009 2.901232395452e-009 0.000000000000e+000 
6.666666666667e+000 0.000000000000e+000 2.333333333333e+001 9.345495482922e-009 2.600600530114e-009 0.000000000000e+000 
1.333333333333e+001 0.000000000000e+000 2.666666666667e+001 7.721517958534e-009 2.600600530114e-009 0.000000000000e+000 
1.666666666667e+001 0.000000000000e+000 2.333333333333e+001 8.223540639630e-009 2.098577849019e-009 0.000000000000e+000 
2.333333333333e+001 0.000000000000e+000 2.666666666667e+001 6.876007960929e-009 2.098577849019e-009 0.000000000000e+000 